 vasp.5.4.1 05Feb16 (build Mar 19 2020 08:54:17) complex                        
  
 executed on           IFC91_ompi date 2022.03.11  12:16:58
 running on   96 total cores
 distrk:  each k-point on   96 cores,    1 groups
 distr:  one band on NCORES_PER_BAND=  24 cores,    4 groups


--------------------------------------------------------------------------------------------------------


 INCAR:
 POTCAR:    PAW_PBE Ni 02Aug2007                  
 POTCAR:    PAW_PBE Cl 06Sep2000                  

 ----------------------------------------------------------------------------- 
|                                                                             |
|           W    W    AA    RRRRR   N    N  II  N    N   GGGG   !!!           |
|           W    W   A  A   R    R  NN   N  II  NN   N  G    G  !!!           |
|           W    W  A    A  R    R  N N  N  II  N N  N  G       !!!           |
|           W WW W  AAAAAA  RRRRR   N  N N  II  N  N N  G  GGG   !            |
|           WW  WW  A    A  R   R   N   NN  II  N   NN  G    G                |
|           W    W  A    A  R    R  N    N  II  N    N   GGGG   !!!           |
|                                                                             |
|      For optimal performance we recommend to set                            |
|        NCORE= 4 - approx SQRT( number of cores)                             |
|      NCORE specifies how many cores store one orbital (NPAR=cpu/NCORE).     |
|      This setting can  greatly improve the performance of VASP for DFT.     |
|      The default, NPAR=number of cores might be grossly inefficient         |
|      on modern multi-core architectures or massively parallel machines.     |
|      Do your own testing !!!!                                               |
|      Unfortunately you need to use the default for GW and RPA calculations. |
|      (for HF NCORE is supported but not extensively tested yet)             |
|                                                                             |
 ----------------------------------------------------------------------------- 

 POTCAR:    PAW_PBE Ni 02Aug2007                  
   VRHFIN =Ni:                                                                  
   LEXCH  = PE                                                                  
   EATOM  =  1077.6739 eV,   79.2068 Ry                                         
                                                                                
   TITEL  = PAW_PBE Ni 02Aug2007                                                
   LULTRA =        F    use ultrasoft PP ?                                      
   IUNSCR =        1    unscreen: 0-lin 1-nonlin 2-no                           
   RPACOR =    2.000    partial core radius                                     
   POMASS =   58.690; ZVAL   =   10.000    mass and valenz                      
   RCORE  =    2.300    outmost cutoff radius                                   
   RWIGS  =    2.430; RWIGS  =    1.286    wigner-seitz radius (au A)           
   ENMAX  =  269.532; ENMIN  =  202.149 eV                                      
   RCLOC  =    1.201    cutoff for local pot                                    
   LCOR   =        T    correct aug charges                                     
   LPAW   =        T    paw PP                                                  
   EAUG   =  544.565                                                            
   DEXC   =    0.000                                                            
   RMAX   =    2.357    core radius for proj-oper                               
   RAUG   =    1.300    factor for augmentation sphere                          
   RDEP   =    2.390    radius for radial grids                                 
   RDEPT  =    1.838    core radius for aug-charge                              
                                                                                
   Atomic configuration                                                         
    9 entries                                                                   
     n  l   j            E        occ.                                          
     1  0  0.50     -8206.4253   2.0000                                         
     2  0  0.50      -976.1748   2.0000                                         
     2  1  1.50      -839.0571   6.0000                                         
     3  0  0.50      -105.9991   2.0000                                         
     3  1  1.50       -66.4603   6.0000                                         
     3  2  2.50        -4.6458   9.0000                                         
     4  0  0.50        -4.4926   1.0000                                         
     4  1  1.50        -4.0817   0.0000                                         
     4  3  2.50        -1.3606   0.0000                                         
   Description                                                                  
     l       E           TYP  RCUT    TYP  RCUT                                 
     2     -4.6457903     23  2.300                                             
     2     -6.0063729     23  2.300                                             
     0     -4.4925590     23  2.300                                             
     0      5.0102601     23  2.300                                             
     1     -2.7211652     23  2.300                                             
     1     16.5183231     23  2.300                                             
  local pseudopotential read in
  partial core-charges read in
  partial kinetic energy density read in
  atomic valenz-charges read in
  non local Contribution for L=           2  read in
    real space projection operators read in
  non local Contribution for L=           2  read in
    real space projection operators read in
  non local Contribution for L=           0  read in
    real space projection operators read in
  non local Contribution for L=           0  read in
    real space projection operators read in
  non local Contribution for L=           1  read in
    real space projection operators read in
  non local Contribution for L=           1  read in
    real space projection operators read in
    PAW grid and wavefunctions read in
 
   number of l-projection  operators is LMAX  =           6
   number of lm-projection operators is LMMAX =          18
 
 POTCAR:    PAW_PBE Cl 06Sep2000                  
   VRHFIN =Cl: s2p5                                                             
   LEXCH  = PE                                                                  
   EATOM  =   409.7259 eV,   30.1140 Ry                                         
                                                                                
   TITEL  = PAW_PBE Cl 06Sep2000                                                
   LULTRA =        F    use ultrasoft PP ?                                      
   IUNSCR =        1    unscreen: 0-lin 1-nonlin 2-no                           
   RPACOR =    1.500    partial core radius                                     
   POMASS =   35.453; ZVAL   =    7.000    mass and valenz                      
   RCORE  =    1.900    outmost cutoff radius                                   
   RWIGS  =    2.100; RWIGS  =    1.111    wigner-seitz radius (au A)           
   ENMAX  =  262.472; ENMIN  =  196.854 eV                                      
   ICORE  =        2    local potential                                         
   LCOR   =        T    correct aug charges                                     
   LPAW   =        T    paw PP                                                  
   EAUG   =  356.192                                                            
   DEXC   =    0.000                                                            
   RMAX   =    1.945    core radius for proj-oper                               
   RAUG   =    1.300    factor for augmentation sphere                          
   RDEP   =    2.020    radius for radial grids                                 
   RDEPT  =    1.678    core radius for aug-charge                              
                                                                                
   Atomic configuration                                                         
    6 entries                                                                   
     n  l   j            E        occ.                                          
     1  0  0.50     -2751.1850   2.0000                                         
     2  0  0.50      -252.6861   2.0000                                         
     2  1  1.50      -191.6157   6.0000                                         
     3  0  0.50       -20.6916   2.0000                                         
     3  1  0.50        -8.5949   5.0000                                         
     3  2  1.50        -8.1635   0.0000                                         
   Description                                                                  
     l       E           TYP  RCUT    TYP  RCUT                                 
     0    -20.6915656     23  1.900                                             
     0    -22.0521482     23  1.900                                             
     1     -8.5948577     23  1.900                                             
     1     -5.3847331     23  1.900                                             
     2     -8.1634956     23  1.900                                             
  local pseudopotential read in
  partial core-charges read in
  partial kinetic energy density read in
  atomic valenz-charges read in
  non local Contribution for L=           0  read in
    real space projection operators read in
  non local Contribution for L=           0  read in
    real space projection operators read in
  non local Contribution for L=           1  read in
    real space projection operators read in
  non local Contribution for L=           1  read in
    real space projection operators read in
    PAW grid and wavefunctions read in
 
   number of l-projection  operators is LMAX  =           4
   number of lm-projection operators is LMMAX =           8
 

 ----------------------------------------------------------------------------- 
|                                                                             |
|  ADVICE TO THIS USER RUNNING 'VASP/VAMP'   (HEAR YOUR MASTER'S VOICE ...):  |
|                                                                             |
|      You have a (more or less) 'small supercell' and for smaller cells      |
|      it is recommended  to use the reciprocal-space projection scheme!      |
|      The real space optimization is not  efficient for small cells and it   |
|      is also less accurate ...                                              |
|      Therefore set LREAL=.FALSE. in the  INCAR file                         |
|                                                                             |
 ----------------------------------------------------------------------------- 

 Optimization of the real space projectors (new method)

 maximal supplied QI-value         = 16.25
 optimisation between [QCUT,QGAM] = [ 10.73, 21.61] = [ 32.22,130.83] Ry 
 Optimized for a Real-space Cutoff    1.34 Angstroem

   l    n(q)    QCUT    max X(q) W(low)/X(q) W(high)/X(q)  e(spline) 
   2      8    10.726    60.317    0.47E-03    0.39E-03    0.97E-07
   2      8    10.726    55.921    0.48E-03    0.39E-03    0.10E-06
   0      9    10.726    51.690    0.35E-03    0.32E-03    0.97E-07
   0      9    10.726    30.015    0.31E-03    0.29E-03    0.88E-07
   1      8    10.726    18.849    0.34E-03    0.47E-04    0.17E-06
   1      8    10.726    14.624    0.29E-03    0.31E-04    0.15E-06
 Optimization of the real space projectors (new method)

 maximal supplied QI-value         = 19.84
 optimisation between [QCUT,QGAM] = [ 10.71, 21.63] = [ 32.15,130.99] Ry 
 Optimized for a Real-space Cutoff    1.19 Angstroem

   l    n(q)    QCUT    max X(q) W(low)/X(q) W(high)/X(q)  e(spline) 
   0      8    10.715   168.010    0.38E-03    0.52E-04    0.59E-07
   0      8    10.715   164.674    0.37E-03    0.50E-04    0.57E-07
   1      7    10.715    69.222    0.20E-03    0.59E-03    0.70E-07
   1      7    10.715    56.786    0.19E-03    0.58E-03    0.68E-07
  PAW_PBE Ni 02Aug2007                  :
 energy of atom  1       EATOM=-1077.6739
 kinetic energy error for atom=    0.0038 (will be added to EATOM!!)
  PAW_PBE Cl 06Sep2000                  :
 energy of atom  2       EATOM= -409.7259
 kinetic energy error for atom=    0.0057 (will be added to EATOM!!)
 
 
 POSCAR: Ni Cell                                 
  positions in direct lattice
  No initial velocities read in
 exchange correlation table for  LEXCH =        8
   RHO(1)=    0.500       N(1)  =     2000
   RHO(2)=  100.500       N(2)  =     4000
 


--------------------------------------------------------------------------------------------------------


 ion  position               nearest neighbor table
   1  0.500  0.550  0.550-   2 2.03   3 2.03   4 2.49
   2  0.500  0.454  0.646-   1 2.03
   3  0.500  0.646  0.454-   1 2.03
   4  0.650  0.500  0.500-   1 2.49
 
  LATTYP: Found a simple cubic cell.
 ALAT       =    15.0000000000
  
  Lattice vectors:
  
 A1 = (  15.0000000000,   0.0000000000,   0.0000000000)
 A2 = (   0.0000000000,  15.0000000000,   0.0000000000)
 A3 = (   0.0000000000,   0.0000000000,  15.0000000000)


Analysis of symmetry for initial positions (statically):
=====================================================================
 Subroutine PRICEL returns:
 Original cell was already a primitive cell.
 

 Routine SETGRP: Setting up the symmetry group for a 
 simple cubic supercell.


 Subroutine GETGRP returns: Found  2 space group operations
 (whereof  2 operations were pure point group operations)
 out of a pool of 48 trial point group operations.


The static configuration has the point symmetry C_1h.


Analysis of symmetry for dynamics (positions and initial velocities):
=====================================================================
 Subroutine PRICEL returns:
 Original cell was already a primitive cell.
 

 Routine SETGRP: Setting up the symmetry group for a 
 simple cubic supercell.


 Subroutine GETGRP returns: Found  2 space group operations
 (whereof  2 operations were pure point group operations)
 out of a pool of 48 trial point group operations.


The dynamic configuration has the point symmetry C_1h.


Analysis of structural, dynamic, and magnetic symmetry:
=====================================================================
 Subroutine PRICEL returns:
 Original cell was already a primitive cell.
 

 Routine SETGRP: Setting up the symmetry group for a 
 simple cubic supercell.


 Subroutine GETGRP returns: Found  2 space group operations
 (whereof  2 operations were pure point group operations)
 out of a pool of 48 trial point group operations.


The magnetic configuration has the point symmetry C_1h.


 Subroutine INISYM returns: Found  2 space group operations
 (whereof  2 operations are pure point group operations),
 and found     1 'primitive' translations

 
 
 KPOINTS: k-points                                

Automatic generation of k-mesh.
Space group operators:
 irot       det(A)        alpha          n_x          n_y          n_z        tau_x        tau_y        tau_z
    1     1.000000     0.000000     1.000000     0.000000     0.000000     0.000000     0.000000     0.000000
    2    -1.000000   180.000000     0.000000    -0.707107     0.707107     0.000000     0.000000     0.000000
 
 Subroutine IBZKPT returns following result:
 ===========================================
 
 Found      1 irreducible k-points:
 
 Following reciprocal coordinates:
            Coordinates               Weight
  0.000000  0.000000  0.000000      1.000000
 
 Following cartesian coordinates:
            Coordinates               Weight
  0.000000  0.000000  0.000000      1.000000
 


--------------------------------------------------------------------------------------------------------




 Dimension of arrays:
   k-points           NKPTS =      1   k-points in BZ     NKDIM =      1   number of bands    NBANDS=     24
   number of dos      NEDOS =    301   number of ions     NIONS =      4
   non local maximal  LDIM  =      6   non local SUM 2l+1 LMDIM =     18
   total plane-waves  NPLWV = 512000
   max r-space proj   IRMAX =   1581   max aug-charges    IRDMAX=   5116
   dimension x,y,z NGX =    80 NGY =   80 NGZ =   80
   dimension x,y,z NGXF=   160 NGYF=  160 NGZF=  160
   support grid    NGXF=   160 NGYF=  160 NGZF=  160
   ions per type =               1   3
 NGX,Y,Z   is equivalent  to a cutoff of   8.87,  8.87,  8.87 a.u.
 NGXF,Y,Z  is equivalent  to a cutoff of  17.73, 17.73, 17.73 a.u.


 I would recommend the setting:
   dimension x,y,z NGX =    78 NGY =   78 NGZ =   78
 SYSTEM =  clean (100) surface                     
 POSCAR =  Ni Cell                                 

 Startparameter for this run:
   NWRITE =      2    write-flag & timer
   PREC   = normal    normal or accurate (medium, high low for compatibility)
   ISTART =      0    job   : 0-new  1-cont  2-samecut
   ICHARG =      2    charge: 1-file 2-atom 10-const
   ISPIN  =      2    spin polarized calculation?
   LNONCOLLINEAR =      F non collinear calculations
   LSORBIT =      F    spin-orbit coupling
   INIWAV =      1    electr: 0-lowe 1-rand  2-diag
   LASPH  =      F    aspherical Exc in radial PAW
   METAGGA=      F    non-selfconsistent MetaGGA calc.

 Electronic Relaxation 1
   ENCUT  =  450.0 eV  33.07 Ry    5.75 a.u.  25.95 25.95 25.95*2*pi/ulx,y,z
   ENINI  =  450.0     initial cutoff
   ENAUG  =  544.6 eV  augmentation charge cutoff
   NELM   =     60;   NELMIN=  2; NELMDL= -5     # of ELM steps 
   EDIFF  = 0.1E-05   stopping-criterion for ELM
   LREAL  =      T    real-space projection
   NLSPLINE    = F    spline interpolate recip. space projectors
   LCOMPAT=      F    compatible to vasp.4.4
   GGA_COMPAT  = T    GGA compatible to vasp.4.4-vasp.4.6
   LMAXPAW     = -100 max onsite density
   LMAXMIX     =    2 max onsite mixed and CHGCAR
   VOSKOWN=      0    Vosko Wilk Nusair interpolation
   ROPT   =   -0.00050  -0.00050
 Ionic relaxation
   EDIFFG = -.1E-01   stopping-criterion for IOM
   NSW    =    250    number of steps for IOM
   NBLOCK =      1;   KBLOCK =    250    inner block; outer block 
   IBRION =      2    ionic relax: 0-MD 1-quasi-New 2-CG
   NFREE  =      1    steps in history (QN), initial steepest desc. (CG)
   ISIF   =      2    stress and relaxation
   IWAVPR =     11    prediction:  0-non 1-charg 2-wave 3-comb
   ISYM   =      2    0-nonsym 1-usesym 2-fastsym
   LCORR  =      T    Harris-Foulkes like correction to forces

   POTIM  = 0.1000    time-step for ionic-motion
   TEIN   =    0.0    initial temperature
   TEBEG  =    0.0;   TEEND  =   0.0 temperature during run
   SMASS  =  -3.00    Nose mass-parameter (am)
   estimated Nose-frequenzy (Omega)   =  0.10E-29 period in steps =****** mass=  -0.514E-26a.u.
   SCALEE = 1.0000    scale energy and forces
   NPACO  =    256;   APACO  = 16.0  distance and # of slots for P.C.
   PSTRESS=    0.0 pullay stress

  Mass of Ions in am
   POMASS =  58.69 35.45
  Ionic Valenz
   ZVAL   =  10.00  7.00
  Atomic Wigner-Seitz radii
   RWIGS  =  -1.00 -1.00
  virtual crystal weights 
   VCA    =   1.00  1.00
   NELECT =      31.0000    total number of electrons
   NUPDOWN=      -1.0000    fix difference up-down

 DOS related values:
   EMIN   =  10.00;   EMAX   =-10.00  energy-range for DOS
   EFERMI =   0.00
   ISMEAR =     2;   SIGMA  =   0.20  broadening in eV -4-tet -1-fermi 0-gaus

 Electronic relaxation 2 (details)
   IALGO  =     68    algorithm
   LDIAG  =      T    sub-space diagonalisation (order eigenvalues)
   LSUBROT=      F    optimize rotation matrix (better conditioning)
   TURBO    =      0    0=normal 1=particle mesh
   IRESTART =      0    0=no restart 2=restart with 2 vectors
   NREBOOT  =      0    no. of reboots
   NMIN     =      0    reboot dimension
   EREF     =   0.00    reference energy to select bands
   IMIX   =      4    mixing-type and parameters
     AMIX     =   0.40;   BMIX     =  1.00
     AMIX_MAG =   1.60;   BMIX_MAG =  1.00
     AMIN     =   0.10
     WC   =   100.;   INIMIX=   1;  MIXPRE=   1;  MAXMIX= -45

 Intra band minimization:
   WEIMIN = 0.0010     energy-eigenvalue tresh-hold
   EBREAK =  0.10E-07  absolut break condition
   DEPER  =   0.30     relativ break condition  

   TIME   =   0.40     timestep for ELM

  volume/ion in A,a.u.               =     843.75      5693.91
  Fermi-wavevector in a.u.,A,eV,Ry     =   0.342850  0.647893  1.599312  0.117546
  Thomas-Fermi vector in A             =   1.248550
 
 Write flags
   LWAVE  =      F    write WAVECAR
   LCHARG =      F    write CHGCAR
   LVTOT  =      F    write LOCPOT, total local potential
   LVHAR  =      F    write LOCPOT, Hartree potential only
   LELF   =      F    write electronic localiz. function (ELF)
   LORBIT =      0    0 simple, 1 ext, 2 COOP (PROOUT)


 Dipole corrections
   LMONO  =      F    monopole corrections only (constant potential shift)
   LDIPOL =      F    correct potential (dipole corrections)
   IDIPOL =      0    1-x, 2-y, 3-z, 4-all directions 
   EPSILON=  1.0000000 bulk dielectric constant

 Exchange correlation treatment:
   GGA     =    --    GGA type
   LEXCH   =     8    internal setting for exchange type
   VOSKOWN=      0    Vosko Wilk Nusair interpolation
   LHFCALC =     F    Hartree Fock is set to
   LHFONE  =     F    Hartree Fock one center treatment
   AEXX    =    0.0000 exact exchange contribution

 Linear response parameters
   LEPSILON=     F    determine dielectric tensor
   LRPA    =     F    only Hartree local field effects (RPA)
   LNABLA  =     F    use nabla operator in PAW spheres
   LVEL    =     F    velocity operator in full k-point grid
   LINTERFAST=   F  fast interpolation
   KINTER  =     0    interpolate to denser k-point grid
   CSHIFT  =0.1000    complex shift for real part using Kramers Kronig
   OMEGAMAX=  -1.0    maximum frequency
   DEG_THRESHOLD= 0.2000000E-02 threshold for treating states as degnerate
   RTIME   =    0.100 relaxation time in fs

 Orbital magnetization related:
   ORBITALMAG=     F  switch on orbital magnetization
   LCHIMAG   =     F  perturbation theory with respect to B field
   DQ        =  0.001000  dq finite difference perturbation B field



--------------------------------------------------------------------------------------------------------


 conjugate gradient relaxation of ions
 charge density and potential will be updated during run
 spin polarized calculation
 RMM-DIIS sequential band-by-band and
  variant of blocked Davidson during initial phase
 perform sub-space diagonalisation
    before iterative eigenvector-optimisation
 modified Broyden-mixing scheme, WC =      100.0
 initial mixing is a Kerker type mixing with AMIX =  0.4000 and BMIX =      1.0000
 Hartree-type preconditioning will be used
 using additional bands            8
 real space projection scheme for non local part
 use partial core corrections
 calculate Harris-corrections to forces 
   (improved forces if not selfconsistent)
 use gradient corrections 
 use of overlap-Matrix (Vanderbilt PP)
 Methfessel and Paxton  Order N= 2 SIGMA  =   0.20


--------------------------------------------------------------------------------------------------------


  energy-cutoff  :      450.00
  volume of cell :     3375.00
      direct lattice vectors                 reciprocal lattice vectors
    15.000000000  0.000000000  0.000000000     0.066666667  0.000000000  0.000000000
     0.000000000 15.000000000  0.000000000     0.000000000  0.066666667  0.000000000
     0.000000000  0.000000000 15.000000000     0.000000000  0.000000000  0.066666667

  length of vectors
    15.000000000 15.000000000 15.000000000     0.066666667  0.066666667  0.066666667


 
 k-points in units of 2pi/SCALE and weight: k-points                                
   0.00000000  0.00000000  0.00000000       1.000
 
 k-points in reciprocal lattice and weights: k-points                                
   0.00000000  0.00000000  0.00000000       1.000
 
 position of ions in fractional coordinates (direct lattice) 
   0.50000000  0.55002624  0.55002624
   0.50000000  0.45417254  0.64580122
   0.50000000  0.64580122  0.45417254
   0.65000000  0.50000000  0.50000000
 
 position of ions in cartesian coordinates  (Angst):
   7.50000000  8.25039359  8.25039359
   7.50000000  6.81258808  9.68701833
   7.50000000  9.68701833  6.81258808
   9.75000000  7.50000000  7.50000000
 


--------------------------------------------------------------------------------------------------------


 k-point  1 :   0.0000 0.0000 0.0000  plane waves:   72935

 maximum and minimum number of plane-waves per node :      3049     3028

 maximum number of plane-waves:     72935
 maximum index in each direction: 
   IXMAX=   25   IYMAX=   25   IZMAX=   25
   IXMIN=  -25   IYMIN=  -25   IZMIN=  -25

 WARNING: aliasing errors must be expected set NGX to 102 to avoid them
 WARNING: aliasing errors must be expected set NGY to 102 to avoid them
 WARNING: aliasing errors must be expected set NGZ to 102 to avoid them
 aliasing errors are usually negligible using standard VASP settings
 and one can safely disregard these warnings

 real space projection operators:
  total allocation   :        406.30 KBytes
  max/ min on nodes  :         37.77          3.52


 parallel 3D FFT for wavefunctions:
    minimum data exchange during FFTs selected (reduces bandwidth)
 parallel 3D FFT for charge:
    minimum data exchange during FFTs selected (reduces bandwidth)


 total amount of memory used by VASP on root node    39392. kBytes
========================================================================

   base      :      30000. kBytes
   nonlr-proj:        110. kBytes
   fftplans  :       2467. kBytes
   grid      :       6195. kBytes
   one-center:         31. kBytes
   wavefun   :        589. kBytes
 
     INWAV:  cpu time    0.0000: real time    0.0000
 Broyden mixing: mesh for mixing (old mesh)
   NGX = 51   NGY = 51   NGZ = 51
  (NGX  =160   NGY  =160   NGZ  =160)
  gives a total of 132651 points

 initial charge density was supplied:
 charge density of overlapping atoms calculated
 number of electron      31.0000000 magnetization       4.0000000
 keeping initial charge density in first step


--------------------------------------------------------------------------------------------------------


 Maximum index for non-local projection operator           69
 Maximum index for augmentation-charges          113 (set IRDMAX)


--------------------------------------------------------------------------------------------------------


 First call to EWALD:  gamma=   0.118
 Maximum number of real-space cells 3x 3x 3
 Maximum number of reciprocal cells 3x 3x 3

 FEWALD executed in parallel
    FEWALD:  cpu time    0.0021: real time    0.0021


----------------------------------------- Iteration    1(   1)  ---------------------------------------


    POTLOK:  cpu time    0.0819: real time    0.0884
    SETDIJ:  cpu time    0.0090: real time    0.0096
     EDDAV:  cpu time    0.1707: real time    0.2074
       DOS:  cpu time    0.0055: real time    0.0070
    --------------------------------------------
      LOOP:  cpu time    0.2714: real time    0.3214

 eigenvalue-minimisations  :   128
 total energy-change (2. order) : 0.2024394E+03  (-0.5888412E+03)
 number of electron      31.0000000 magnetization       4.0000000
 augmentation part       31.0000000 magnetization       4.0000000

 Free energy of the ion-electron system (eV)
  ---------------------------------------------------
  alpha Z        PSCENC =         1.29982882
  Ewald energy   TEWEN  =       726.04124311
  -Hartree energ DENC   =     -2743.38973504
  -exchange      EXHF   =         0.00000000
  -V(xc)+E(xc)   XCENC  =        90.00289491
  PAW double counting   =      1938.40363599    -2005.57267717
  entropy T*S    EENTRO =        -0.00141088
  eigenvalues    EBANDS =      -111.17498924
  atomic energy  EATOM  =      2306.83061462
  Solvation  Ediel_sol  =         0.00000000
  ---------------------------------------------------
  free energy    TOTEN  =       202.43940511 eV

  energy without entropy =      202.44081599  energy(sigma->0) =      202.43975783


--------------------------------------------------------------------------------------------------------




----------------------------------------- Iteration    1(   2)  ---------------------------------------


     EDDAV:  cpu time    0.1343: real time    0.1343
       DOS:  cpu time    0.0002: real time    0.0002
    --------------------------------------------
      LOOP:  cpu time    0.1360: real time    0.1414

 eigenvalue-minimisations  :   176
 total energy-change (2. order) :-0.1518099E+03  (-0.1449560E+03)
 number of electron      31.0000000 magnetization       4.0000000
 augmentation part       31.0000000 magnetization       4.0000000

 Free energy of the ion-electron system (eV)
  ---------------------------------------------------
  alpha Z        PSCENC =         1.29982882
  Ewald energy   TEWEN  =       726.04124311
  -Hartree energ DENC   =     -2743.38973504
  -exchange      EXHF   =         0.00000000
  -V(xc)+E(xc)   XCENC  =        90.00289491
  PAW double counting   =      1938.40363599    -2005.57267717
  entropy T*S    EENTRO =         0.01287496
  eigenvalues    EBANDS =      -262.99918742
  atomic energy  EATOM  =      2306.83061462
  Solvation  Ediel_sol  =         0.00000000
  ---------------------------------------------------
  free energy    TOTEN  =        50.62949278 eV

  energy without entropy =       50.61661782  energy(sigma->0) =       50.62627404


--------------------------------------------------------------------------------------------------------




----------------------------------------- Iteration    1(   3)  ---------------------------------------


     EDDAV:  cpu time    0.0990: real time    0.0990
       DOS:  cpu time    0.0003: real time    0.0003
    --------------------------------------------
      LOOP:  cpu time    0.1002: real time    0.1062

 eigenvalue-minimisations  :   120
 total energy-change (2. order) :-0.5987790E+02  (-0.5811779E+02)
 number of electron      31.0000000 magnetization       4.0000000
 augmentation part       31.0000000 magnetization       4.0000000

 Free energy of the ion-electron system (eV)
  ---------------------------------------------------
  alpha Z        PSCENC =         1.29982882
  Ewald energy   TEWEN  =       726.04124311
  -Hartree energ DENC   =     -2743.38973504
  -exchange      EXHF   =         0.00000000
  -V(xc)+E(xc)   XCENC  =        90.00289491
  PAW double counting   =      1938.40363599    -2005.57267717
  entropy T*S    EENTRO =         0.01755390
  eigenvalues    EBANDS =      -322.88176462
  atomic energy  EATOM  =      2306.83061462
  Solvation  Ediel_sol  =         0.00000000
  ---------------------------------------------------
  free energy    TOTEN  =        -9.24840549 eV

  energy without entropy =       -9.26595938  energy(sigma->0) =       -9.25279396


--------------------------------------------------------------------------------------------------------




----------------------------------------- Iteration    1(   4)  ---------------------------------------


     EDDAV:  cpu time    0.0844: real time    0.0845
       DOS:  cpu time    0.0002: real time    0.0002
    --------------------------------------------
      LOOP:  cpu time    0.0857: real time    0.0918

 eigenvalue-minimisations  :    96
 total energy-change (2. order) :-0.5471035E+01  (-0.5447379E+01)
 number of electron      31.0000000 magnetization       4.0000000
 augmentation part       31.0000000 magnetization       4.0000000

 Free energy of the ion-electron system (eV)
  ---------------------------------------------------
  alpha Z        PSCENC =         1.29982882
  Ewald energy   TEWEN  =       726.04124311
  -Hartree energ DENC   =     -2743.38973504
  -exchange      EXHF   =         0.00000000
  -V(xc)+E(xc)   XCENC  =        90.00289491
  PAW double counting   =      1938.40363599    -2005.57267717
  entropy T*S    EENTRO =        -0.03848927
  eigenvalues    EBANDS =      -328.29675655
  atomic energy  EATOM  =      2306.83061462
  Solvation  Ediel_sol  =         0.00000000
  ---------------------------------------------------
  free energy    TOTEN  =       -14.71944058 eV

  energy without entropy =      -14.68095131  energy(sigma->0) =      -14.70981826


--------------------------------------------------------------------------------------------------------




----------------------------------------- Iteration    1(   5)  ---------------------------------------


     EDDAV:  cpu time    0.1090: real time    0.1090
       DOS:  cpu time    0.0002: real time    0.0002
    CHARGE:  cpu time    0.0983: real time    0.0995
    MIXING:  cpu time    0.0098: real time    0.0105
    --------------------------------------------
      LOOP:  cpu time    0.2186: real time    0.2265

 eigenvalue-minimisations  :   136
 total energy-change (2. order) :-0.8903724E-01  (-0.8897499E-01)
 number of electron      30.9999991 magnetization       3.7592395
 augmentation part        1.9022686 magnetization       2.6638940

 Broyden mixing:
  rms(total) = 0.23189E+01    rms(broyden)= 0.23183E+01
  rms(prec ) = 0.25704E+01
  weight for this iteration     100.00

 Free energy of the ion-electron system (eV)
  ---------------------------------------------------
  alpha Z        PSCENC =         1.29982882
  Ewald energy   TEWEN  =       726.04124311
  -Hartree energ DENC   =     -2743.38973504
  -exchange      EXHF   =         0.00000000
  -V(xc)+E(xc)   XCENC  =        90.00289491
  PAW double counting   =      1938.40363599    -2005.57267717
  entropy T*S    EENTRO =        -0.03970805
  eigenvalues    EBANDS =      -328.38457501
  atomic energy  EATOM  =      2306.83061462
  Solvation  Ediel_sol  =         0.00000000
  ---------------------------------------------------
  free energy    TOTEN  =       -14.80847782 eV

  energy without entropy =      -14.76876977  energy(sigma->0) =      -14.79855081


--------------------------------------------------------------------------------------------------------




----------------------------------------- Iteration    1(   6)  ---------------------------------------


    POTLOK:  cpu time    0.0682: real time    0.0682
    SETDIJ:  cpu time    0.0048: real time    0.0048
    EDDIAG:  cpu time    0.0232: real time    0.0243
  RMM-DIIS:  cpu time    0.0966: real time    0.0977
    ORTHCH:  cpu time    0.0043: real time    0.0043
       DOS:  cpu time    0.0002: real time    0.0002
    CHARGE:  cpu time    0.0854: real time    0.0854
    MIXING:  cpu time    0.0022: real time    0.0032
    --------------------------------------------
      LOOP:  cpu time    0.2865: real time    0.2961

 eigenvalue-minimisations  :   112
 total energy-change (2. order) :-0.6417106E+01  (-0.9019956E+01)
 number of electron      31.0000001 magnetization       3.6049522
 augmentation part        5.2329734 magnetization       2.3576914

 Broyden mixing:
  rms(total) = 0.51032E+01    rms(broyden)= 0.51031E+01
  rms(prec ) = 0.53515E+01
  weight for this iteration     100.00

 eigenvalues of (default mixing * dielectric matrix)
  average eigenvalue GAMMA=   0.2942
  0.2942

 Free energy of the ion-electron system (eV)
  ---------------------------------------------------
  alpha Z        PSCENC =         1.29982882
  Ewald energy   TEWEN  =       726.04124311
  -Hartree energ DENC   =     -2680.07859504
  -exchange      EXHF   =         0.00000000
  -V(xc)+E(xc)   XCENC  =        91.68878573
  PAW double counting   =      2016.75942007    -2072.57709240
  entropy T*S    EENTRO =         0.00081641
  eigenvalues    EBANDS =      -411.19060540
  atomic energy  EATOM  =      2306.83061462
  Solvation  Ediel_sol  =         0.00000000
  ---------------------------------------------------
  free energy    TOTEN  =       -21.22558408 eV

  energy without entropy =      -21.22640049  energy(sigma->0) =      -21.22578818


--------------------------------------------------------------------------------------------------------




----------------------------------------- Iteration    1(   7)  ---------------------------------------


    POTLOK:  cpu time    0.0649: real time    0.0649
    SETDIJ:  cpu time    0.0035: real time    0.0035
    EDDIAG:  cpu time    0.0188: real time    0.0188
  RMM-DIIS:  cpu time    0.0506: real time    0.0506
    ORTHCH:  cpu time    0.0044: real time    0.0044
       DOS:  cpu time    0.0002: real time    0.0002
    CHARGE:  cpu time    0.0807: real time    0.0807
    MIXING:  cpu time    0.0021: real time    0.0029
    --------------------------------------------
      LOOP:  cpu time    0.2266: real time    0.2337

 eigenvalue-minimisations  :    96
 total energy-change (2. order) : 0.9503170E+01  (-0.1197225E+01)
 number of electron      30.9999998 magnetization       3.5341065
 augmentation part        4.4568336 magnetization       1.3958008

 Broyden mixing:
  rms(total) = 0.21287E+01    rms(broyden)= 0.21287E+01
  rms(prec ) = 0.23043E+01
  weight for this iteration     100.00

 eigenvalues of (default mixing * dielectric matrix)
  average eigenvalue GAMMA=   0.4888
  0.4888  0.4888

 Free energy of the ion-electron system (eV)
  ---------------------------------------------------
  alpha Z        PSCENC =         1.29982882
  Ewald energy   TEWEN  =       726.04124311
  -Hartree energ DENC   =     -2704.43457500
  -exchange      EXHF   =         0.00000000
  -V(xc)+E(xc)   XCENC  =        90.88526164
  PAW double counting   =      2108.16339544    -2171.36591427
  entropy T*S    EENTRO =        -0.01272812
  eigenvalues    EBANDS =      -369.12953994
  atomic energy  EATOM  =      2306.83061462
  Solvation  Ediel_sol  =         0.00000000
  ---------------------------------------------------
  free energy    TOTEN  =       -11.72241369 eV

  energy without entropy =      -11.70968557  energy(sigma->0) =      -11.71923166


--------------------------------------------------------------------------------------------------------




----------------------------------------- Iteration    1(   8)  ---------------------------------------


    POTLOK:  cpu time    0.0649: real time    0.0649
    SETDIJ:  cpu time    0.0035: real time    0.0035
    EDDIAG:  cpu time    0.0187: real time    0.0187
  RMM-DIIS:  cpu time    0.0501: real time    0.0501
    ORTHCH:  cpu time    0.0042: real time    0.0042
       DOS:  cpu time    0.0002: real time    0.0002
    CHARGE:  cpu time    0.0806: real time    0.0806
    MIXING:  cpu time    0.0021: real time    0.0024
    --------------------------------------------
      LOOP:  cpu time    0.2256: real time    0.2324

 eigenvalue-minimisations  :    96
 total energy-change (2. order) : 0.1588442E+01  (-0.8780616E+00)
 number of electron      30.9999993 magnetization       3.3280816
 augmentation part        2.7668322 magnetization       1.9446009

 Broyden mixing:
  rms(total) = 0.98902E+00    rms(broyden)= 0.98816E+00
  rms(prec ) = 0.10741E+01
  weight for this iteration     100.00

 eigenvalues of (default mixing * dielectric matrix)
  average eigenvalue GAMMA=   0.6413
  1.1798  0.3721  0.3721

 Free energy of the ion-electron system (eV)
  ---------------------------------------------------
  alpha Z        PSCENC =         1.29982882
  Ewald energy   TEWEN  =       726.04124311
  -Hartree energ DENC   =     -2726.37827190
  -exchange      EXHF   =         0.00000000
  -V(xc)+E(xc)   XCENC  =        90.60321433
  PAW double counting   =      2196.64216187    -2265.06699690
  entropy T*S    EENTRO =         0.01392921
  eigenvalues    EBANDS =      -340.11969531
  atomic energy  EATOM  =      2306.83061462
  Solvation  Ediel_sol  =         0.00000000
  ---------------------------------------------------
  free energy    TOTEN  =       -10.13397215 eV

  energy without entropy =      -10.14790136  energy(sigma->0) =      -10.13745445


--------------------------------------------------------------------------------------------------------




----------------------------------------- Iteration    1(   9)  ---------------------------------------


    POTLOK:  cpu time    0.0650: real time    0.0650
    SETDIJ:  cpu time    0.0035: real time    0.0035
    EDDIAG:  cpu time    0.0187: real time    0.0187
  RMM-DIIS:  cpu time    0.0523: real time    0.0524
    ORTHCH:  cpu time    0.0042: real time    0.0042
       DOS:  cpu time    0.0002: real time    0.0002
    CHARGE:  cpu time    0.0831: real time    0.0831
    MIXING:  cpu time    0.0021: real time    0.0021
    --------------------------------------------
      LOOP:  cpu time    0.2304: real time    0.2368

 eigenvalue-minimisations  :    97
 total energy-change (2. order) :-0.1277935E+00  (-0.6682922E-01)
 number of electron      30.9999994 magnetization       3.3821864
 augmentation part        3.6330343 magnetization       1.0027458

 Broyden mixing:
  rms(total) = 0.96639E+00    rms(broyden)= 0.96583E+00
  rms(prec ) = 0.11067E+01
  weight for this iteration     100.00

 eigenvalues of (default mixing * dielectric matrix)
  average eigenvalue GAMMA=   0.5302
  0.8720  0.5479  0.3504  0.3504

 Free energy of the ion-electron system (eV)
  ---------------------------------------------------
  alpha Z        PSCENC =         1.29982882
  Ewald energy   TEWEN  =       726.04124311
  -Hartree energ DENC   =     -2723.24270215
  -exchange      EXHF   =         0.00000000
  -V(xc)+E(xc)   XCENC  =        90.80707233
  PAW double counting   =      2319.99959229    -2389.82726377
  entropy T*S    EENTRO =        -0.00299857
  eigenvalues    EBANDS =      -342.16715237
  atomic energy  EATOM  =      2306.83061462
  Solvation  Ediel_sol  =         0.00000000
  ---------------------------------------------------
  free energy    TOTEN  =       -10.26176568 eV

  energy without entropy =      -10.25876711  energy(sigma->0) =      -10.26101604


--------------------------------------------------------------------------------------------------------




----------------------------------------- Iteration    1(  10)  ---------------------------------------


    POTLOK:  cpu time    0.0648: real time    0.0648
    SETDIJ:  cpu time    0.0035: real time    0.0035
    EDDIAG:  cpu time    0.0187: real time    0.0187
  RMM-DIIS:  cpu time    0.0506: real time    0.0506
    ORTHCH:  cpu time    0.0043: real time    0.0043
       DOS:  cpu time    0.0002: real time    0.0002
    CHARGE:  cpu time    0.0807: real time    0.0807
    MIXING:  cpu time    0.0023: real time    0.0023
    --------------------------------------------
      LOOP:  cpu time    0.2264: real time    0.2329

 eigenvalue-minimisations  :    96
 total energy-change (2. order) :-0.3392299E+00  (-0.5210082E-01)
 number of electron      30.9999992 magnetization       3.2192102
 augmentation part        2.8722829 magnetization       1.7638386

 Broyden mixing:
  rms(total) = 0.64515E+00    rms(broyden)= 0.64485E+00
  rms(prec ) = 0.72441E+00
  weight for this iteration     100.00

 eigenvalues of (default mixing * dielectric matrix)
  average eigenvalue GAMMA=   0.7087
  1.7944  0.5112  0.5112  0.3632  0.3632

 Free energy of the ion-electron system (eV)
  ---------------------------------------------------
  alpha Z        PSCENC =         1.29982882
  Ewald energy   TEWEN  =       726.04124311
  -Hartree energ DENC   =     -2726.47456487
  -exchange      EXHF   =         0.00000000
  -V(xc)+E(xc)   XCENC  =        90.31514391
  PAW double counting   =      2300.75474743    -2370.50693137
  entropy T*S    EENTRO =        -0.03269588
  eigenvalues    EBANDS =      -338.82838133
  atomic energy  EATOM  =      2306.83061462
  Solvation  Ediel_sol  =         0.00000000
  ---------------------------------------------------
  free energy    TOTEN  =       -10.60099555 eV

  energy without entropy =      -10.56829968  energy(sigma->0) =      -10.59282158


--------------------------------------------------------------------------------------------------------




----------------------------------------- Iteration    1(  11)  ---------------------------------------


    POTLOK:  cpu time    0.0645: real time    0.0646
    SETDIJ:  cpu time    0.0035: real time    0.0035
    EDDIAG:  cpu time    0.0187: real time    0.0187
  RMM-DIIS:  cpu time    0.0502: real time    0.0502
    ORTHCH:  cpu time    0.0042: real time    0.0042
       DOS:  cpu time    0.0002: real time    0.0002
    CHARGE:  cpu time    0.0806: real time    0.0807
    MIXING:  cpu time    0.0024: real time    0.0024
    --------------------------------------------
      LOOP:  cpu time    0.2257: real time    0.2321

 eigenvalue-minimisations  :    96
 total energy-change (2. order) : 0.3765327E-01  (-0.3837182E-01)
 number of electron      30.9999993 magnetization       3.1743403
 augmentation part        3.4873383 magnetization       1.1547556

 Broyden mixing:
  rms(total) = 0.37197E+00    rms(broyden)= 0.37177E+00
  rms(prec ) = 0.41254E+00
  weight for this iteration     100.00

 eigenvalues of (default mixing * dielectric matrix)
  average eigenvalue GAMMA=   0.7382
  2.1107  0.5461  0.5461  0.4103  0.4103  0.4053

 Free energy of the ion-electron system (eV)
  ---------------------------------------------------
  alpha Z        PSCENC =         1.29982882
  Ewald energy   TEWEN  =       726.04124311
  -Hartree energ DENC   =     -2721.78670919
  -exchange      EXHF   =         0.00000000
  -V(xc)+E(xc)   XCENC  =        90.20736971
  PAW double counting   =      2378.62016347    -2448.62422925
  entropy T*S    EENTRO =        -0.00166247
  eigenvalues    EBANDS =      -343.14996111
  atomic energy  EATOM  =      2306.83061462
  Solvation  Ediel_sol  =         0.00000000
  ---------------------------------------------------
  free energy    TOTEN  =       -10.56334228 eV

  energy without entropy =      -10.56167981  energy(sigma->0) =      -10.56292666


--------------------------------------------------------------------------------------------------------




----------------------------------------- Iteration    1(  12)  ---------------------------------------


    POTLOK:  cpu time    0.0646: real time    0.0646
    SETDIJ:  cpu time    0.0036: real time    0.0036
    EDDIAG:  cpu time    0.0187: real time    0.0187
  RMM-DIIS:  cpu time    0.0504: real time    0.0504
    ORTHCH:  cpu time    0.0043: real time    0.0043
       DOS:  cpu time    0.0002: real time    0.0002
    CHARGE:  cpu time    0.0805: real time    0.0805
    MIXING:  cpu time    0.0025: real time    0.0025
    --------------------------------------------
      LOOP:  cpu time    0.2260: real time    0.2322

 eigenvalue-minimisations  :    96
 total energy-change (2. order) :-0.1163544E+00  (-0.3707059E-02)
 number of electron      30.9999993 magnetization       3.1516290
 augmentation part        3.3920968 magnetization       1.2117783

 Broyden mixing:
  rms(total) = 0.17899E+00    rms(broyden)= 0.17888E+00
  rms(prec ) = 0.19643E+00
  weight for this iteration     100.00

 eigenvalues of (default mixing * dielectric matrix)
  average eigenvalue GAMMA=   0.7524
  2.2531  0.6405  0.6405  0.4826  0.4826  0.3838  0.3838

 Free energy of the ion-electron system (eV)
  ---------------------------------------------------
  alpha Z        PSCENC =         1.29982882
  Ewald energy   TEWEN  =       726.04124311
  -Hartree energ DENC   =     -2722.24113312
  -exchange      EXHF   =         0.00000000
  -V(xc)+E(xc)   XCENC  =        90.08178141
  PAW double counting   =      2396.53476611    -2466.69155773
  entropy T*S    EENTRO =         0.01593891
  eigenvalues    EBANDS =      -342.55117885
  atomic energy  EATOM  =      2306.83061462
  Solvation  Ediel_sol  =         0.00000000
  ---------------------------------------------------
  free energy    TOTEN  =       -10.67969672 eV

  energy without entropy =      -10.69563563  energy(sigma->0) =      -10.68368145


--------------------------------------------------------------------------------------------------------




----------------------------------------- Iteration    1(  13)  ---------------------------------------


    POTLOK:  cpu time    0.0649: real time    0.0649
    SETDIJ:  cpu time    0.0035: real time    0.0035
    EDDIAG:  cpu time    0.0187: real time    0.0187
  RMM-DIIS:  cpu time    0.0505: real time    0.0505
    ORTHCH:  cpu time    0.0044: real time    0.0044
       DOS:  cpu time    0.0002: real time    0.0002
    CHARGE:  cpu time    0.0809: real time    0.0809
    MIXING:  cpu time    0.0026: real time    0.0026
    --------------------------------------------
      LOOP:  cpu time    0.2270: real time    0.2333

 eigenvalue-minimisations  :    96
 total energy-change (2. order) :-0.6074338E-01  (-0.1554551E-02)
 number of electron      30.9999993 magnetization       3.1214334
 augmentation part        3.3240600 magnetization       1.2451471

 Broyden mixing:
  rms(total) = 0.80761E-01    rms(broyden)= 0.80669E-01
  rms(prec ) = 0.87412E-01
  weight for this iteration     100.00

 eigenvalues of (default mixing * dielectric matrix)
  average eigenvalue GAMMA=   0.8242
  2.4325  0.9255  0.9255  0.5410  0.5410  0.3887  0.3887  0.4510

 Free energy of the ion-electron system (eV)
  ---------------------------------------------------
  alpha Z        PSCENC =         1.29982882
  Ewald energy   TEWEN  =       726.04124311
  -Hartree energ DENC   =     -2722.63764763
  -exchange      EXHF   =         0.00000000
  -V(xc)+E(xc)   XCENC  =        90.02309812
  PAW double counting   =      2405.15576871    -2475.41483109
  entropy T*S    EENTRO =         0.02141029
  eigenvalues    EBANDS =      -342.05992505
  atomic energy  EATOM  =      2306.83061462
  Solvation  Ediel_sol  =         0.00000000
  ---------------------------------------------------
  free energy    TOTEN  =       -10.74044010 eV

  energy without entropy =      -10.76185039  energy(sigma->0) =      -10.74579267


--------------------------------------------------------------------------------------------------------




----------------------------------------- Iteration    1(  14)  ---------------------------------------


    POTLOK:  cpu time    0.0647: real time    0.0647
    SETDIJ:  cpu time    0.0035: real time    0.0035
    EDDIAG:  cpu time    0.0187: real time    0.0187
  RMM-DIIS:  cpu time    0.0497: real time    0.0497
    ORTHCH:  cpu time    0.0044: real time    0.0044
       DOS:  cpu time    0.0002: real time    0.0002
    CHARGE:  cpu time    0.0805: real time    0.0805
    MIXING:  cpu time    0.0027: real time    0.0027
    --------------------------------------------
      LOOP:  cpu time    0.2256: real time    0.2320

 eigenvalue-minimisations  :    96
 total energy-change (2. order) :-0.6289168E-01  (-0.7935930E-03)
 number of electron      30.9999993 magnetization       3.1016782
 augmentation part        3.3691855 magnetization       1.1774317

 Broyden mixing:
  rms(total) = 0.16403E+00    rms(broyden)= 0.16394E+00
  rms(prec ) = 0.18558E+00
  weight for this iteration     100.00

 eigenvalues of (default mixing * dielectric matrix)
  average eigenvalue GAMMA=   0.8294
  2.4774  1.0260  1.0260  0.6427  0.6427  0.4414  0.4414  0.3835  0.3835

 Free energy of the ion-electron system (eV)
  ---------------------------------------------------
  alpha Z        PSCENC =         1.29982882
  Ewald energy   TEWEN  =       726.04124311
  -Hartree energ DENC   =     -2722.50751749
  -exchange      EXHF   =         0.00000000
  -V(xc)+E(xc)   XCENC  =        89.95796318
  PAW double counting   =      2410.58281087    -2480.82445360
  entropy T*S    EENTRO =         0.00875848
  eigenvalues    EBANDS =      -342.19257978
  atomic energy  EATOM  =      2306.83061462
  Solvation  Ediel_sol  =         0.00000000
  ---------------------------------------------------
  free energy    TOTEN  =       -10.80333177 eV

  energy without entropy =      -10.81209026  energy(sigma->0) =      -10.80552140


--------------------------------------------------------------------------------------------------------




----------------------------------------- Iteration    1(  15)  ---------------------------------------


    POTLOK:  cpu time    0.0647: real time    0.0647
    SETDIJ:  cpu time    0.0035: real time    0.0035
    EDDIAG:  cpu time    0.0186: real time    0.0186
  RMM-DIIS:  cpu time    0.0504: real time    0.0504
    ORTHCH:  cpu time    0.0044: real time    0.0044
       DOS:  cpu time    0.0002: real time    0.0002
    CHARGE:  cpu time    0.0805: real time    0.0805
    MIXING:  cpu time    0.0030: real time    0.0030
    --------------------------------------------
      LOOP:  cpu time    0.2265: real time    0.2329

 eigenvalue-minimisations  :    96
 total energy-change (2. order) :-0.2684838E-01  (-0.5833335E-03)
 number of electron      30.9999993 magnetization       3.0934997
 augmentation part        3.2728431 magnetization       1.2491373

 Broyden mixing:
  rms(total) = 0.44098E-01    rms(broyden)= 0.43944E-01
  rms(prec ) = 0.49381E-01
  weight for this iteration     100.00

 eigenvalues of (default mixing * dielectric matrix)
  average eigenvalue GAMMA=   0.8130
  2.4285  1.3160  0.7044  0.7044  0.7279  0.6139  0.4375  0.4375  0.3801  0.3801

 Free energy of the ion-electron system (eV)
  ---------------------------------------------------
  alpha Z        PSCENC =         1.29982882
  Ewald energy   TEWEN  =       726.04124311
  -Hartree energ DENC   =     -2722.88667900
  -exchange      EXHF   =         0.00000000
  -V(xc)+E(xc)   XCENC  =        89.91915416
  PAW double counting   =      2410.52286225    -2480.77819940
  entropy T*S    EENTRO =         0.00858141
  eigenvalues    EBANDS =      -341.78758612
  atomic energy  EATOM  =      2306.83061462
  Solvation  Ediel_sol  =         0.00000000
  ---------------------------------------------------
  free energy    TOTEN  =       -10.83018016 eV

  energy without entropy =      -10.83876156  energy(sigma->0) =      -10.83232551


--------------------------------------------------------------------------------------------------------




----------------------------------------- Iteration    1(  16)  ---------------------------------------


    POTLOK:  cpu time    0.0646: real time    0.0646
    SETDIJ:  cpu time    0.0035: real time    0.0035
    EDDIAG:  cpu time    0.0188: real time    0.0188
  RMM-DIIS:  cpu time    0.0501: real time    0.0501
    ORTHCH:  cpu time    0.0043: real time    0.0043
       DOS:  cpu time    0.0002: real time    0.0002
    CHARGE:  cpu time    0.0806: real time    0.0806
    MIXING:  cpu time    0.0030: real time    0.0030
    --------------------------------------------
      LOOP:  cpu time    0.2264: real time    0.2328

 eigenvalue-minimisations  :    96
 total energy-change (2. order) :-0.1476866E-01  (-0.1908675E-03)
 number of electron      30.9999993 magnetization       3.0859849
 augmentation part        3.2658256 magnetization       1.2448900

 Broyden mixing:
  rms(total) = 0.39037E-01    rms(broyden)= 0.38965E-01
  rms(prec ) = 0.44249E-01
  weight for this iteration     100.00

 eigenvalues of (default mixing * dielectric matrix)
  average eigenvalue GAMMA=   0.8588
  2.4835  1.2692  0.9749  0.9749  0.6780  0.6780  0.7145  0.3823  0.3823  0.4546
  0.4546

 Free energy of the ion-electron system (eV)
  ---------------------------------------------------
  alpha Z        PSCENC =         1.29982882
  Ewald energy   TEWEN  =       726.04124311
  -Hartree energ DENC   =     -2722.81003803
  -exchange      EXHF   =         0.00000000
  -V(xc)+E(xc)   XCENC  =        89.90146322
  PAW double counting   =      2409.94530180    -2480.16199002
  entropy T*S    EENTRO =         0.01272319
  eigenvalues    EBANDS =      -341.90409553
  atomic energy  EATOM  =      2306.83061462
  Solvation  Ediel_sol  =         0.00000000
  ---------------------------------------------------
  free energy    TOTEN  =       -10.84494881 eV

  energy without entropy =      -10.85767200  energy(sigma->0) =      -10.84812961


--------------------------------------------------------------------------------------------------------




----------------------------------------- Iteration    1(  17)  ---------------------------------------


    POTLOK:  cpu time    0.0646: real time    0.0646
    SETDIJ:  cpu time    0.0035: real time    0.0035
    EDDIAG:  cpu time    0.0188: real time    0.0188
  RMM-DIIS:  cpu time    0.0503: real time    0.0503
    ORTHCH:  cpu time    0.0043: real time    0.0043
       DOS:  cpu time    0.0002: real time    0.0002
    CHARGE:  cpu time    0.0806: real time    0.0806
    MIXING:  cpu time    0.0031: real time    0.0031
    --------------------------------------------
      LOOP:  cpu time    0.2266: real time    0.2330

 eigenvalue-minimisations  :    96
 total energy-change (2. order) :-0.1278464E-01  (-0.1650019E-03)
 number of electron      30.9999993 magnetization       3.0748966
 augmentation part        3.2794229 magnetization       1.2223824

 Broyden mixing:
  rms(total) = 0.18144E-01    rms(broyden)= 0.18121E-01
  rms(prec ) = 0.22134E-01
  weight for this iteration     100.00

 eigenvalues of (default mixing * dielectric matrix)
  average eigenvalue GAMMA=   0.9257
  2.2644  2.2644  1.0642  0.9042  0.9042  0.6920  0.6920  0.6511  0.3824  0.3824
  0.4533  0.4533

 Free energy of the ion-electron system (eV)
  ---------------------------------------------------
  alpha Z        PSCENC =         1.29982882
  Ewald energy   TEWEN  =       726.04124311
  -Hartree energ DENC   =     -2722.76747589
  -exchange      EXHF   =         0.00000000
  -V(xc)+E(xc)   XCENC  =        89.89021635
  PAW double counting   =      2409.13934007    -2479.31919667
  entropy T*S    EENTRO =         0.01554750
  eigenvalues    EBANDS =      -341.98785138
  atomic energy  EATOM  =      2306.83061462
  Solvation  Ediel_sol  =         0.00000000
  ---------------------------------------------------
  free energy    TOTEN  =       -10.85773346 eV

  energy without entropy =      -10.87328096  energy(sigma->0) =      -10.86162033


--------------------------------------------------------------------------------------------------------




----------------------------------------- Iteration    1(  18)  ---------------------------------------


    POTLOK:  cpu time    0.0646: real time    0.0646
    SETDIJ:  cpu time    0.0036: real time    0.0036
    EDDIAG:  cpu time    0.0187: real time    0.0187
  RMM-DIIS:  cpu time    0.0518: real time    0.0518
    ORTHCH:  cpu time    0.0045: real time    0.0045
       DOS:  cpu time    0.0002: real time    0.0002
    CHARGE:  cpu time    0.0904: real time    0.0904
    MIXING:  cpu time    0.0033: real time    0.0033
    --------------------------------------------
      LOOP:  cpu time    0.2382: real time    0.2446

 eigenvalue-minimisations  :    97
 total energy-change (2. order) :-0.8447606E-02  (-0.4854263E-04)
 number of electron      30.9999993 magnetization       3.0702600
 augmentation part        3.2778228 magnetization       1.2181506

 Broyden mixing:
  rms(total) = 0.19296E-01    rms(broyden)= 0.19292E-01
  rms(prec ) = 0.23100E-01
  weight for this iteration     100.00

 eigenvalues of (default mixing * dielectric matrix)
  average eigenvalue GAMMA=   0.9627
  2.5166  2.5166  1.1574  0.9975  0.9975  0.6797  0.6797  0.3823  0.3823  0.4538
  0.4538  0.6491  0.6491

 Free energy of the ion-electron system (eV)
  ---------------------------------------------------
  alpha Z        PSCENC =         1.29982882
  Ewald energy   TEWEN  =       726.04124311
  -Hartree energ DENC   =     -2722.84536569
  -exchange      EXHF   =         0.00000000
  -V(xc)+E(xc)   XCENC  =        89.88144080
  PAW double counting   =      2408.18548424    -2478.34016895
  entropy T*S    EENTRO =         0.01671854
  eigenvalues    EBANDS =      -341.93597656
  atomic energy  EATOM  =      2306.83061462
  Solvation  Ediel_sol  =         0.00000000
  ---------------------------------------------------
  free energy    TOTEN  =       -10.86618106 eV

  energy without entropy =      -10.88289960  energy(sigma->0) =      -10.87036070


--------------------------------------------------------------------------------------------------------




----------------------------------------- Iteration    1(  19)  ---------------------------------------


    POTLOK:  cpu time    0.0644: real time    0.0644
    SETDIJ:  cpu time    0.0035: real time    0.0035
    EDDIAG:  cpu time    0.0186: real time    0.0186
  RMM-DIIS:  cpu time    0.0522: real time    0.0522
    ORTHCH:  cpu time    0.0042: real time    0.0042
       DOS:  cpu time    0.0002: real time    0.0002
    CHARGE:  cpu time    0.0817: real time    0.0817
    MIXING:  cpu time    0.0035: real time    0.0035
    --------------------------------------------
      LOOP:  cpu time    0.2297: real time    0.2359

 eigenvalue-minimisations  :    98
 total energy-change (2. order) :-0.1640901E-02  (-0.1573238E-04)
 number of electron      30.9999993 magnetization       3.0644757
 augmentation part        3.2862133 magnetization       1.2049616

 Broyden mixing:
  rms(total) = 0.47958E-02    rms(broyden)= 0.47747E-02
  rms(prec ) = 0.77218E-02
  weight for this iteration     100.00

 eigenvalues of (default mixing * dielectric matrix)
  average eigenvalue GAMMA=   0.9789
  2.6519  2.6519  1.0309  1.0309  0.9883  0.9883  0.6769  0.6769  0.3823  0.3823
  0.4538  0.4538  0.6679  0.6679

 Free energy of the ion-electron system (eV)
  ---------------------------------------------------
  alpha Z        PSCENC =         1.29982882
  Ewald energy   TEWEN  =       726.04124311
  -Hartree energ DENC   =     -2722.84138831
  -exchange      EXHF   =         0.00000000
  -V(xc)+E(xc)   XCENC  =        89.88011120
  PAW double counting   =      2408.13591192    -2478.28139291
  entropy T*S    EENTRO =         0.01633597
  eigenvalues    EBANDS =      -341.94908639
  atomic energy  EATOM  =      2306.83061462
  Solvation  Ediel_sol  =         0.00000000
  ---------------------------------------------------
  free energy    TOTEN  =       -10.86782196 eV

  energy without entropy =      -10.88415794  energy(sigma->0) =      -10.87190596


--------------------------------------------------------------------------------------------------------




----------------------------------------- Iteration    1(  20)  ---------------------------------------


    POTLOK:  cpu time    0.0646: real time    0.0646
    SETDIJ:  cpu time    0.0035: real time    0.0035
    EDDIAG:  cpu time    0.0186: real time    0.0186
  RMM-DIIS:  cpu time    0.0498: real time    0.0498
    ORTHCH:  cpu time    0.0042: real time    0.0042
       DOS:  cpu time    0.0002: real time    0.0002
    CHARGE:  cpu time    0.0804: real time    0.0804
    MIXING:  cpu time    0.0037: real time    0.0037
    --------------------------------------------
      LOOP:  cpu time    0.2262: real time    0.2324

 eigenvalue-minimisations  :    96
 total energy-change (2. order) :-0.2028620E-02  (-0.3379661E-04)
 number of electron      30.9999993 magnetization       3.0614952
 augmentation part        3.2895029 magnetization       1.2007275

 Broyden mixing:
  rms(total) = 0.35231E-02    rms(broyden)= 0.35095E-02
  rms(prec ) = 0.49170E-02
  weight for this iteration     100.00

 eigenvalues of (default mixing * dielectric matrix)
  average eigenvalue GAMMA=   1.0094
  2.7366  2.7366  1.2624  1.2624  1.0289  1.0289  0.6789  0.6789  0.3823  0.3823
  0.4538  0.4538  0.7193  0.7193  0.6167

 Free energy of the ion-electron system (eV)
  ---------------------------------------------------
  alpha Z        PSCENC =         1.29982882
  Ewald energy   TEWEN  =       726.04124311
  -Hartree energ DENC   =     -2722.87964208
  -exchange      EXHF   =         0.00000000
  -V(xc)+E(xc)   XCENC  =        89.87817083
  PAW double counting   =      2408.07708658    -2478.21748816
  entropy T*S    EENTRO =         0.01595151
  eigenvalues    EBANDS =      -341.91561582
  atomic energy  EATOM  =      2306.83061462
  Solvation  Ediel_sol  =         0.00000000
  ---------------------------------------------------
  free energy    TOTEN  =       -10.86985058 eV

  energy without entropy =      -10.88580209  energy(sigma->0) =      -10.87383846


--------------------------------------------------------------------------------------------------------




----------------------------------------- Iteration    1(  21)  ---------------------------------------


    POTLOK:  cpu time    0.0646: real time    0.0646
    SETDIJ:  cpu time    0.0035: real time    0.0035
    EDDIAG:  cpu time    0.0186: real time    0.0186
  RMM-DIIS:  cpu time    0.0500: real time    0.0500
    ORTHCH:  cpu time    0.0042: real time    0.0042
       DOS:  cpu time    0.0002: real time    0.0002
    CHARGE:  cpu time    0.0807: real time    0.0808
    MIXING:  cpu time    0.0038: real time    0.0038
    --------------------------------------------
      LOOP:  cpu time    0.2270: real time    0.2333

 eigenvalue-minimisations  :    96
 total energy-change (2. order) :-0.1012633E-02  (-0.2089538E-04)
 number of electron      30.9999993 magnetization       3.0606890
 augmentation part        3.2890782 magnetization       1.2000535

 Broyden mixing:
  rms(total) = 0.34881E-02    rms(broyden)= 0.34834E-02
  rms(prec ) = 0.40907E-02
  weight for this iteration     100.00

 eigenvalues of (default mixing * dielectric matrix)
  average eigenvalue GAMMA=   1.0438
  3.1516  2.3596  1.9635  1.0530  1.0530  1.1254  0.6800  0.6800  0.8387  0.8387
  0.3823  0.3823  0.4538  0.4538  0.6628  0.6218

 Free energy of the ion-electron system (eV)
  ---------------------------------------------------
  alpha Z        PSCENC =         1.29982882
  Ewald energy   TEWEN  =       726.04124311
  -Hartree energ DENC   =     -2722.92369226
  -exchange      EXHF   =         0.00000000
  -V(xc)+E(xc)   XCENC  =        89.87714103
  PAW double counting   =      2408.33179296    -2478.47810979
  entropy T*S    EENTRO =         0.01537466
  eigenvalues    EBANDS =      -341.86505637
  atomic energy  EATOM  =      2306.83061462
  Solvation  Ediel_sol  =         0.00000000
  ---------------------------------------------------
  free energy    TOTEN  =       -10.87086322 eV

  energy without entropy =      -10.88623788  energy(sigma->0) =      -10.87470688


--------------------------------------------------------------------------------------------------------




----------------------------------------- Iteration    1(  22)  ---------------------------------------


    POTLOK:  cpu time    0.0647: real time    0.0647
    SETDIJ:  cpu time    0.0035: real time    0.0035
    EDDIAG:  cpu time    0.0187: real time    0.0187
  RMM-DIIS:  cpu time    0.0506: real time    0.0506
    ORTHCH:  cpu time    0.0042: real time    0.0042
       DOS:  cpu time    0.0002: real time    0.0002
    CHARGE:  cpu time    0.0847: real time    0.0847
    MIXING:  cpu time    0.0039: real time    0.0039
    --------------------------------------------
      LOOP:  cpu time    0.2317: real time    0.2381

 eigenvalue-minimisations  :    95
 total energy-change (2. order) :-0.7915985E-03  (-0.1042458E-04)
 number of electron      30.9999993 magnetization       3.0606850
 augmentation part        3.2903518 magnetization       1.1991885

 Broyden mixing:
  rms(total) = 0.50243E-02    rms(broyden)= 0.50223E-02
  rms(prec ) = 0.55860E-02
  weight for this iteration     100.00

 eigenvalues of (default mixing * dielectric matrix)
  average eigenvalue GAMMA=   1.1204
  3.7011  2.4409  2.4409  1.0562  1.0562  1.2253  1.2253  0.6812  0.6812  0.3823
  0.3823  0.4538  0.4538  0.8079  0.8079  0.6253  0.6253

 Free energy of the ion-electron system (eV)
  ---------------------------------------------------
  alpha Z        PSCENC =         1.29982882
  Ewald energy   TEWEN  =       726.04124311
  -Hartree energ DENC   =     -2722.93434472
  -exchange      EXHF   =         0.00000000
  -V(xc)+E(xc)   XCENC  =        89.87668218
  PAW double counting   =      2408.49155431    -2478.64155531
  entropy T*S    EENTRO =         0.01523459
  eigenvalues    EBANDS =      -341.85091242
  atomic energy  EATOM  =      2306.83061462
  Solvation  Ediel_sol  =         0.00000000
  ---------------------------------------------------
  free energy    TOTEN  =       -10.87165482 eV

  energy without entropy =      -10.88688940  energy(sigma->0) =      -10.87546346


--------------------------------------------------------------------------------------------------------




----------------------------------------- Iteration    1(  23)  ---------------------------------------


    POTLOK:  cpu time    0.0646: real time    0.0646
    SETDIJ:  cpu time    0.0035: real time    0.0035
    EDDIAG:  cpu time    0.0188: real time    0.0188
  RMM-DIIS:  cpu time    0.0502: real time    0.0502
    ORTHCH:  cpu time    0.0043: real time    0.0043
       DOS:  cpu time    0.0002: real time    0.0002
    CHARGE:  cpu time    0.0802: real time    0.0802
    MIXING:  cpu time    0.0042: real time    0.0042
    --------------------------------------------
      LOOP:  cpu time    0.2274: real time    0.2337

 eigenvalue-minimisations  :    94
 total energy-change (2. order) :-0.7240949E-03  (-0.7956239E-05)
 number of electron      30.9999993 magnetization       3.0609750
 augmentation part        3.2927490 magnetization       1.1967055

 Broyden mixing:
  rms(total) = 0.85233E-02    rms(broyden)= 0.85213E-02
  rms(prec ) = 0.96034E-02
  weight for this iteration     100.00

 eigenvalues of (default mixing * dielectric matrix)
  average eigenvalue GAMMA=   1.1574
  4.4351  2.5722  2.5722  1.2975  1.2975  1.0549  1.0549  0.8366  0.8366  0.6817
  0.6817  0.3823  0.3823  0.4538  0.4538  0.6318  0.6318  0.5768

 Free energy of the ion-electron system (eV)
  ---------------------------------------------------
  alpha Z        PSCENC =         1.29982882
  Ewald energy   TEWEN  =       726.04124311
  -Hartree energ DENC   =     -2722.92431559
  -exchange      EXHF   =         0.00000000
  -V(xc)+E(xc)   XCENC  =        89.87499038
  PAW double counting   =      2408.42471816    -2478.57371773
  entropy T*S    EENTRO =         0.01534477
  eigenvalues    EBANDS =      -341.86108546
  atomic energy  EATOM  =      2306.83061462
  Solvation  Ediel_sol  =         0.00000000
  ---------------------------------------------------
  free energy    TOTEN  =       -10.87237891 eV

  energy without entropy =      -10.88772368  energy(sigma->0) =      -10.87621510


--------------------------------------------------------------------------------------------------------




----------------------------------------- Iteration    1(  24)  ---------------------------------------


    POTLOK:  cpu time    0.0646: real time    0.0646
    SETDIJ:  cpu time    0.0035: real time    0.0035
    EDDIAG:  cpu time    0.0186: real time    0.0186
  RMM-DIIS:  cpu time    0.0500: real time    0.0500
    ORTHCH:  cpu time    0.0042: real time    0.0042
       DOS:  cpu time    0.0002: real time    0.0002
    CHARGE:  cpu time    0.0803: real time    0.0803
    MIXING:  cpu time    0.0043: real time    0.0043
    --------------------------------------------
      LOOP:  cpu time    0.2270: real time    0.2334

 eigenvalue-minimisations  :    90
 total energy-change (2. order) :-0.1467946E-03  (-0.1772179E-05)
 number of electron      30.9999993 magnetization       3.0615279
 augmentation part        3.2903826 magnetization       1.1991511

 Broyden mixing:
  rms(total) = 0.43763E-02    rms(broyden)= 0.43758E-02
  rms(prec ) = 0.49911E-02
  weight for this iteration     100.00

 eigenvalues of (default mixing * dielectric matrix)
  average eigenvalue GAMMA=   1.2376
  5.7822  2.6601  2.3186  1.8562  1.0839  1.0839  1.0130  1.0130  1.0266  0.6800
  0.6800  0.3823  0.3823  0.4538  0.4538  0.6994  0.6994  0.6226  0.6226

 Free energy of the ion-electron system (eV)
  ---------------------------------------------------
  alpha Z        PSCENC =         1.29982882
  Ewald energy   TEWEN  =       726.04124311
  -Hartree energ DENC   =     -2722.93538774
  -exchange      EXHF   =         0.00000000
  -V(xc)+E(xc)   XCENC  =        89.87460671
  PAW double counting   =      2408.31023838    -2478.45922682
  entropy T*S    EENTRO =         0.01538020
  eigenvalues    EBANDS =      -341.84982299
  atomic energy  EATOM  =      2306.83061462
  Solvation  Ediel_sol  =         0.00000000
  ---------------------------------------------------
  free energy    TOTEN  =       -10.87252570 eV

  energy without entropy =      -10.88790590  energy(sigma->0) =      -10.87637075


--------------------------------------------------------------------------------------------------------




----------------------------------------- Iteration    1(  25)  ---------------------------------------


    POTLOK:  cpu time    0.0660: real time    0.0660
    SETDIJ:  cpu time    0.0037: real time    0.0037
    EDDIAG:  cpu time    0.0225: real time    0.0225
  RMM-DIIS:  cpu time    0.0517: real time    0.0517
    ORTHCH:  cpu time    0.0041: real time    0.0041
       DOS:  cpu time    0.0002: real time    0.0002
    CHARGE:  cpu time    0.0807: real time    0.0807
    MIXING:  cpu time    0.0045: real time    0.0045
    --------------------------------------------
      LOOP:  cpu time    0.2358: real time    0.2411

 eigenvalue-minimisations  :    91
 total energy-change (2. order) :-0.1657189E-03  (-0.1403046E-05)
 number of electron      30.9999993 magnetization       3.0621229
 augmentation part        3.2873343 magnetization       1.2020322

 Broyden mixing:
  rms(total) = 0.13170E-02    rms(broyden)= 0.13035E-02
  rms(prec ) = 0.14451E-02
  weight for this iteration     100.00

 eigenvalues of (default mixing * dielectric matrix)
  average eigenvalue GAMMA=   1.2671
  6.6144  2.6219  2.3498  1.0757  1.0757  1.3411  1.3411  1.1983  1.1983  0.6801
  0.6801  0.3823  0.3823  0.4538  0.4538  0.8355  0.8355  0.6302  0.6302  0.5622

 Free energy of the ion-electron system (eV)
  ---------------------------------------------------
  alpha Z        PSCENC =         1.29982882
  Ewald energy   TEWEN  =       726.04124311
  -Hartree energ DENC   =     -2722.94469439
  -exchange      EXHF   =         0.00000000
  -V(xc)+E(xc)   XCENC  =        89.87423578
  PAW double counting   =      2408.20948238    -2478.35842854
  entropy T*S    EENTRO =         0.01552408
  eigenvalues    EBANDS =      -341.84049729
  atomic energy  EATOM  =      2306.83061462
  Solvation  Ediel_sol  =         0.00000000
  ---------------------------------------------------
  free energy    TOTEN  =       -10.87269142 eV

  energy without entropy =      -10.88821550  energy(sigma->0) =      -10.87657244


--------------------------------------------------------------------------------------------------------




----------------------------------------- Iteration    1(  26)  ---------------------------------------


    POTLOK:  cpu time    0.0646: real time    0.0646
    SETDIJ:  cpu time    0.0035: real time    0.0035
    EDDIAG:  cpu time    0.0187: real time    0.0187
  RMM-DIIS:  cpu time    0.0427: real time    0.0427
    ORTHCH:  cpu time    0.0043: real time    0.0043
       DOS:  cpu time    0.0002: real time    0.0002
    CHARGE:  cpu time    0.0805: real time    0.0805
    MIXING:  cpu time    0.0046: real time    0.0046
    --------------------------------------------
      LOOP:  cpu time    0.2202: real time    0.2267

 eigenvalue-minimisations  :    74
 total energy-change (2. order) :-0.8035592E-04  (-0.2759428E-06)
 number of electron      30.9999993 magnetization       3.0629910
 augmentation part        3.2873604 magnetization       1.2028351

 Broyden mixing:
  rms(total) = 0.10942E-02    rms(broyden)= 0.10930E-02
  rms(prec ) = 0.12438E-02
  weight for this iteration     100.00

 eigenvalues of (default mixing * dielectric matrix)
  average eigenvalue GAMMA=   1.3036
  7.2678  2.7119  1.9941  1.9941  1.3389  1.3389  1.0709  1.0709  1.0092  1.0092
  0.9455  0.6801  0.6801  0.3823  0.3823  0.4538  0.4538  0.7473  0.6214  0.6214
  0.6025

 Free energy of the ion-electron system (eV)
  ---------------------------------------------------
  alpha Z        PSCENC =         1.29982882
  Ewald energy   TEWEN  =       726.04124311
  -Hartree energ DENC   =     -2722.94333946
  -exchange      EXHF   =         0.00000000
  -V(xc)+E(xc)   XCENC  =        89.87431008
  PAW double counting   =      2408.18383900    -2478.33252620
  entropy T*S    EENTRO =         0.01555220
  eigenvalues    EBANDS =      -341.84229395
  atomic energy  EATOM  =      2306.83061462
  Solvation  Ediel_sol  =         0.00000000
  ---------------------------------------------------
  free energy    TOTEN  =       -10.87277178 eV

  energy without entropy =      -10.88832398  energy(sigma->0) =      -10.87665983


--------------------------------------------------------------------------------------------------------




----------------------------------------- Iteration    1(  27)  ---------------------------------------


    POTLOK:  cpu time    0.0646: real time    0.0646
    SETDIJ:  cpu time    0.0036: real time    0.0036
    EDDIAG:  cpu time    0.0187: real time    0.0187
  RMM-DIIS:  cpu time    0.0431: real time    0.0431
    ORTHCH:  cpu time    0.0042: real time    0.0042
       DOS:  cpu time    0.0002: real time    0.0002
    CHARGE:  cpu time    0.0805: real time    0.0805
    MIXING:  cpu time    0.0047: real time    0.0047
    --------------------------------------------
      LOOP:  cpu time    0.2209: real time    0.2272

 eigenvalue-minimisations  :    72
 total energy-change (2. order) :-0.9706999E-04  (-0.2614339E-06)
 number of electron      30.9999993 magnetization       3.0634163
 augmentation part        3.2876999 magnetization       1.2031074

 Broyden mixing:
  rms(total) = 0.45511E-03    rms(broyden)= 0.45507E-03
  rms(prec ) = 0.53985E-03
  weight for this iteration     100.00

 eigenvalues of (default mixing * dielectric matrix)
  average eigenvalue GAMMA=   1.3332
  7.5660  2.9216  2.2552  2.2552  1.3673  1.3673  1.0703  1.0703  1.0565  1.0565
  0.6802  0.6802  0.8944  0.8944  0.3823  0.3823  0.4538  0.4538  0.6604  0.6604
  0.6010  0.6010

 Free energy of the ion-electron system (eV)
  ---------------------------------------------------
  alpha Z        PSCENC =         1.29982882
  Ewald energy   TEWEN  =       726.04124311
  -Hartree energ DENC   =     -2722.94003230
  -exchange      EXHF   =         0.00000000
  -V(xc)+E(xc)   XCENC  =        89.87423304
  PAW double counting   =      2408.16441770    -2478.31253094
  entropy T*S    EENTRO =         0.01551341
  eigenvalues    EBANDS =      -341.84615631
  atomic energy  EATOM  =      2306.83061462
  Solvation  Ediel_sol  =         0.00000000
  ---------------------------------------------------
  free energy    TOTEN  =       -10.87286885 eV

  energy without entropy =      -10.88838226  energy(sigma->0) =      -10.87674720


--------------------------------------------------------------------------------------------------------




----------------------------------------- Iteration    1(  28)  ---------------------------------------


[...]
  atomic energy  EATOM  =      2306.83061462
  Solvation  Ediel_sol  =         0.00000000
  ---------------------------------------------------
  free energy    TOTEN  =       -11.48558719 eV

  energy without entropy =      -11.47184362  energy(sigma->0) =      -11.48215130


--------------------------------------------------------------------------------------------------------




----------------------------------------- Iteration   24(   5)  ---------------------------------------


    POTLOK:  cpu time    0.0645: real time    0.0645
    SETDIJ:  cpu time    0.0035: real time    0.0035
    EDDIAG:  cpu time    0.0187: real time    0.0187
  RMM-DIIS:  cpu time    0.0349: real time    0.0349
    ORTHCH:  cpu time    0.0044: real time    0.0044
       DOS:  cpu time    0.0002: real time    0.0002
    CHARGE:  cpu time    0.0804: real time    0.0804
    MIXING:  cpu time    0.0021: real time    0.0021
    --------------------------------------------
      LOOP:  cpu time    0.2099: real time    0.2163

 eigenvalue-minimisations  :    62
 total energy-change (2. order) :-0.1182861E-05  (-0.2373168E-07)
 number of electron      31.0000014 magnetization       0.9910090
 augmentation part        3.2873410 magnetization       0.5503664

 Broyden mixing:
  rms(total) = 0.29284E-03    rms(broyden)= 0.29180E-03
  rms(prec ) = 0.29905E-03
  weight for this iteration     100.00

 eigenvalues of (default mixing * dielectric matrix)
  average eigenvalue GAMMA=   0.7748
  1.0806  1.0806  0.6480  0.2901

 Free energy of the ion-electron system (eV)
  ---------------------------------------------------
  alpha Z        PSCENC =         1.29982882
  Ewald energy   TEWEN  =       799.34783875
  -Hartree energ DENC   =     -2794.46665775
  -exchange      EXHF   =         0.00000000
  -V(xc)+E(xc)   XCENC  =        89.97270168
  PAW double counting   =      2487.45760638    -2557.44167818
  entropy T*S    EENTRO =        -0.01369289
  eigenvalues    EBANDS =      -344.47214981
  atomic energy  EATOM  =      2306.83061462
  Solvation  Ediel_sol  =         0.00000000
  ---------------------------------------------------
  free energy    TOTEN  =       -11.48558838 eV

  energy without entropy =      -11.47189549  energy(sigma->0) =      -11.48216516


--------------------------------------------------------------------------------------------------------




----------------------------------------- Iteration   24(   6)  ---------------------------------------


    POTLOK:  cpu time    0.0647: real time    0.0647
    SETDIJ:  cpu time    0.0035: real time    0.0035
    EDDIAG:  cpu time    0.0189: real time    0.0189
  RMM-DIIS:  cpu time    0.0337: real time    0.0337
    ORTHCH:  cpu time    0.0044: real time    0.0044
       DOS:  cpu time    0.0002: real time    0.0002
    --------------------------------------------
      LOOP:  cpu time    0.1266: real time    0.1330

 eigenvalue-minimisations  :    58
 total energy-change (2. order) :-0.8228699E-06  (-0.9357943E-08)
 number of electron      31.0000014 magnetization       0.9910090
 augmentation part        3.2873410 magnetization       0.5503664

 Free energy of the ion-electron system (eV)
  ---------------------------------------------------
  alpha Z        PSCENC =         1.29982882
  Ewald energy   TEWEN  =       799.34783875
  -Hartree energ DENC   =     -2794.46718323
  -exchange      EXHF   =         0.00000000
  -V(xc)+E(xc)   XCENC  =        89.97273013
  PAW double counting   =      2487.46147527    -2557.44577264
  entropy T*S    EENTRO =        -0.01368481
  eigenvalues    EBANDS =      -344.47143612
  atomic energy  EATOM  =      2306.83061462
  Solvation  Ediel_sol  =         0.00000000
  ---------------------------------------------------
  free energy    TOTEN  =       -11.48558920 eV

  energy without entropy =      -11.47190439  energy(sigma->0) =      -11.48216800


--------------------------------------------------------------------------------------------------------




 average (electrostatic) potential at core
  the test charge radii are     0.9791  0.9406
  (the norm of the test charge is              1.0000)
       1 -98.3243       2-101.4893       3-101.4893       4-101.1240
 
 
 
 E-fermi :  -6.7570     XC(G=0):  -0.5060     alpha+bet : -0.2204


 spin component 1

 k-point     1 :       0.0000    0.0000    0.0000
  band No.  band energies     occupation 
      1     -21.1296      1.00000
      2     -20.8119      1.00000
      3     -20.3755      1.00000
      4     -11.3018      1.00000
      5     -10.4659      1.00000
      6     -10.3064      1.00000
      7      -9.9941      1.00000
      8      -9.5291      1.00000
      9      -8.8896      1.00000
     10      -8.8414      1.00000
     11      -8.8005      1.00000
     12      -7.7960      1.00000
     13      -7.6160      1.00000
     14      -7.6096      1.00000
     15      -7.1357      0.99567
     16      -7.1327      0.99583
     17      -6.3841      0.00400
     18      -0.9983      0.00000
     19      -0.1572      0.00000
     20       0.1842      0.00000
     21       0.3141      0.00000
     22       0.4170      0.00000
     23       0.6748      0.00000
     24       0.6853      0.00000

 spin component 2

 k-point     1 :       0.0000    0.0000    0.0000
  band No.  band energies     occupation 
      1     -21.0013      1.00000
      2     -20.6533      1.00000
      3     -20.3658      1.00000
      4     -11.1112      1.00000
      5     -10.3278      1.00000
      6     -10.0130      1.00000
      7      -9.4859      1.00000
      8      -9.1930      1.00000
      9      -8.7281      1.00000
     10      -8.7102      1.00000
     11      -8.5101      1.00000
     12      -7.5288      1.00000
     13      -7.4001      0.99990
     14      -6.8971      1.02107
     15      -6.8327      0.85898
     16      -6.6768      0.12449
     17      -6.0992      0.00007
     18      -0.9426      0.00000
     19      -0.1112      0.00000
     20       0.1920      0.00000
     21       0.3375      0.00000
     22       0.4210      0.00000
     23       0.6850      0.00000
     24       0.6879      0.00000


--------------------------------------------------------------------------------------------------------


 soft charge-density along one line, spin component           1
         0         1         2         3         4         5         6         7         8         9
 total charge-density along one line
 
 soft charge-density along one line, spin component           2
         0         1         2         3         4         5         6         7         8         9
 total charge-density along one line
 
 pseudopotential strength for first ion, spin component:           1
-12.167   0.126  -0.036   0.287   0.130 -12.356   0.121  -0.034
  0.126 -12.223   0.208   0.126  -0.360   0.121 -12.409   0.199
 -0.036   0.208 -12.469  -0.095  -0.146  -0.034   0.199 -12.644
  0.287   0.126  -0.095 -12.167   0.096   0.274   0.121  -0.090
  0.130  -0.360  -0.146   0.096 -12.300   0.124  -0.344  -0.140
-12.356   0.121  -0.034   0.274   0.124 -12.494   0.116  -0.033
  0.121 -12.409   0.199   0.121  -0.344   0.116 -12.544   0.190
 -0.034   0.199 -12.644  -0.090  -0.140  -0.033   0.190 -12.768
  0.274   0.121  -0.090 -12.356   0.092   0.262   0.116  -0.086
  0.124  -0.344  -0.140   0.092 -12.482   0.119  -0.329  -0.133
 -0.016  -0.091   0.016  -0.016  -0.027  -0.016  -0.089   0.015
 -0.028  -0.157   0.028  -0.028  -0.048  -0.028  -0.154   0.027
  0.012  -0.004   0.003   0.002   0.002   0.012  -0.004   0.003
  0.002  -0.004  -0.003   0.012  -0.002   0.002  -0.004  -0.003
 -0.008   0.002  -0.010  -0.008   0.017  -0.007   0.002  -0.009
  0.018  -0.006   0.004   0.002   0.003   0.017  -0.006   0.004
  0.002  -0.006  -0.005   0.018  -0.002   0.002  -0.006  -0.004
 -0.010   0.002  -0.013  -0.010   0.023  -0.009   0.002  -0.013
 pseudopotential strength for first ion, spin component:           2
-11.674   0.109  -0.165   0.205  -0.003 -11.886   0.104  -0.159
  0.109 -11.849   0.189   0.109  -0.327   0.104 -12.054   0.180
 -0.165   0.189 -11.595   0.086   0.099  -0.159   0.180 -11.809
  0.205   0.109   0.086 -11.674   0.142   0.196   0.104   0.083
 -0.003  -0.327   0.099   0.142 -11.709  -0.004  -0.313   0.096
-11.886   0.104  -0.159   0.196  -0.004 -12.047   0.099  -0.152
  0.104 -12.054   0.180   0.104  -0.313   0.099 -12.207   0.172
 -0.159   0.180 -11.809   0.083   0.096  -0.152   0.172 -11.971
  0.196   0.104   0.083 -11.886   0.135   0.187   0.099   0.080
 -0.004  -0.313   0.096   0.135 -11.919  -0.004  -0.298   0.092
 -0.035  -0.073  -0.002  -0.035   0.004  -0.034  -0.071  -0.002
 -0.060  -0.126  -0.004  -0.060   0.007  -0.059  -0.123  -0.004
  0.013  -0.004   0.003   0.001   0.003   0.012  -0.004   0.003
  0.001  -0.004  -0.004   0.013  -0.001   0.001  -0.004  -0.003
 -0.007   0.001  -0.009  -0.007   0.016  -0.007   0.001  -0.009
  0.019  -0.006   0.004   0.001   0.005   0.017  -0.006   0.004
  0.001  -0.006  -0.006   0.019  -0.001   0.001  -0.006  -0.005
 -0.009   0.001  -0.012  -0.009   0.021  -0.008   0.001  -0.012
 total augmentation occupancy for first ion, spin component:           1
  4.994   0.677   0.317  -1.077   1.155  -2.708  -0.359  -0.402   0.941  -0.548   0.834  -0.084   0.176  -0.329   0.148  -0.031
  0.677   4.764   0.411   0.677  -0.711  -0.268  -3.188   0.199  -0.268  -0.344   2.156  -0.269   0.055   0.055  -0.095  -0.005
  0.317   0.411   3.751  -1.158   0.465  -0.426   0.135  -2.055   0.648  -0.197  -0.057   0.021   0.116  -0.177   0.152  -0.006
 -1.077   0.677  -1.158   4.994   0.303   0.941  -0.359   0.676  -2.708   0.074   0.834  -0.084  -0.329   0.176   0.148   0.038
  1.155  -0.711   0.465   0.303   3.214  -0.503  -0.234  -0.197   0.118  -1.828   0.099  -0.036   0.138  -0.032  -0.264  -0.037
 -2.708  -0.268  -0.426   0.941  -0.503   2.288   0.066   0.525  -0.814   0.123  -0.757   0.100  -0.136   0.345  -0.221   0.016
 -0.359  -3.188   0.135  -0.359  -0.234   0.066   3.378  -0.587   0.066   1.017  -2.156   0.341  -0.087  -0.087   0.182   0.014
 -0.402   0.199  -2.055   0.676  -0.197   0.525  -0.587   1.933  -0.369  -0.083   0.110  -0.030  -0.087   0.195  -0.231   0.004
  0.941  -0.268   0.648  -2.708   0.118  -0.814   0.066  -0.369   2.288  -0.393  -0.757   0.100   0.345  -0.136  -0.221  -0.046
 -0.548  -0.344  -0.197   0.074  -1.828   0.123   1.017  -0.083  -0.393   2.028  -0.190   0.053  -0.175  -0.013   0.400   0.036
  0.834   2.156  -0.057   0.834   0.099  -0.757  -2.156   0.110  -0.757  -0.190   2.221  -0.333  -0.060  -0.060   0.184   0.012
 -0.084  -0.269   0.021  -0.084  -0.036   0.100   0.341  -0.030   0.100   0.053  -0.333   0.081   0.011   0.011  -0.033  -0.002
  0.176   0.055   0.116  -0.329   0.138  -0.136  -0.087  -0.087   0.345  -0.175  -0.060   0.011   0.356  -0.228  -0.053  -0.046
 -0.329   0.055  -0.177   0.176  -0.032   0.345  -0.087   0.195  -0.136  -0.013  -0.060   0.011  -0.228   0.356  -0.053   0.032
  0.148  -0.095   0.152   0.148  -0.264  -0.221   0.182  -0.231  -0.221   0.400   0.184  -0.033  -0.053  -0.053   0.252   0.010
 -0.031  -0.005  -0.006   0.038  -0.037   0.016   0.014   0.004  -0.046   0.036   0.012  -0.002  -0.046   0.032   0.010   0.009
  0.038  -0.005   0.035  -0.031  -0.014  -0.046   0.014  -0.033   0.016   0.015   0.012  -0.002   0.032  -0.046   0.010  -0.006
 -0.035   0.034  -0.026  -0.035   0.045   0.046  -0.041   0.043   0.046  -0.075  -0.036   0.008   0.010   0.010  -0.037  -0.002
 total augmentation occupancy for first ion, spin component:           2
  0.652   0.048  -0.466  -0.414  -0.291  -0.365  -0.041   0.255   0.257   0.115  -0.021   0.013   0.011  -0.010  -0.004  -0.000
  0.048   0.069   0.058   0.048  -0.100  -0.067   0.010  -0.080  -0.067   0.138  -0.052   0.034  -0.007  -0.007   0.023   0.001
 -0.466   0.058   1.869   0.485   0.992   0.260  -0.061  -0.991  -0.218  -0.574   0.000  -0.001   0.011  -0.005  -0.008  -0.000
 -0.414   0.048   0.485   0.652   0.258   0.257  -0.041  -0.227  -0.365  -0.164  -0.021   0.013  -0.010   0.011  -0.004  -0.002
 -0.291  -0.100   0.992   0.258   0.723   0.102   0.105  -0.574  -0.174  -0.329  -0.001   0.002  -0.001  -0.010   0.014   0.001
 -0.365  -0.067   0.260   0.257   0.102   0.166   0.052  -0.143  -0.162  -0.016   0.011  -0.010  -0.009   0.004   0.009   0.000
 -0.041   0.010  -0.061  -0.041   0.105   0.052  -0.086   0.072   0.052  -0.125   0.049  -0.035   0.006   0.006  -0.020  -0.001
  0.255  -0.080  -0.991  -0.227  -0.574  -0.143   0.072   0.471   0.085   0.336  -0.006   0.003  -0.009   0.000   0.011   0.000
  0.257  -0.067  -0.218  -0.365  -0.174  -0.162   0.052   0.085   0.166   0.116   0.011  -0.010   0.004  -0.009   0.009   0.002
  0.115   0.138  -0.574  -0.164  -0.329  -0.016  -0.125   0.336   0.116   0.084   0.010  -0.006   0.005   0.010  -0.019  -0.001
 -0.021  -0.052   0.000  -0.021  -0.001   0.011   0.049  -0.006   0.011   0.010  -0.092   0.035   0.000   0.000  -0.001  -0.000
  0.013   0.034  -0.001   0.013   0.002  -0.010  -0.035   0.003  -0.010  -0.006   0.035  -0.007  -0.001  -0.001   0.002   0.000
  0.011  -0.007   0.011  -0.010  -0.001  -0.009   0.006  -0.009   0.004   0.005   0.000  -0.001  -0.005   0.001   0.001   0.003
 -0.010  -0.007  -0.005   0.011  -0.010   0.004   0.006   0.000  -0.009   0.010   0.000  -0.001   0.001  -0.005   0.001  -0.002
 -0.004   0.023  -0.008  -0.004   0.014   0.009  -0.020   0.011   0.009  -0.019  -0.001   0.002   0.001   0.001  -0.005  -0.000
 -0.000   0.001  -0.000  -0.002   0.001   0.000  -0.001   0.000   0.002  -0.001  -0.000   0.000   0.003  -0.002  -0.000  -0.001
 -0.002   0.001  -0.001  -0.000   0.001   0.002  -0.001   0.001   0.000  -0.001  -0.000   0.000  -0.002   0.003  -0.000   0.000
  0.002  -0.002   0.002   0.002  -0.004  -0.002   0.002  -0.002  -0.002   0.004   0.001  -0.000  -0.000  -0.000   0.001   0.000


------------------------ aborting loop because EDIFF is reached ----------------------------------------


    CHARGE:  cpu time    0.0797: real time    0.0797
    FORLOC:  cpu time    0.0016: real time    0.0016
    FORNL :  cpu time    0.0161: real time    0.0161
    STRESS:  cpu time    0.0469: real time    0.0469
    FORCOR:  cpu time    0.0637: real time    0.0637
    FORHAR:  cpu time    0.0084: real time    0.0084
    MIXING:  cpu time    0.0021: real time    0.0021
    OFIELD:  cpu time    0.0000: real time    0.0000

  FORCE on cell =-STRESS in cart. coord.  units (eV):
  Direction    XX          YY          ZZ          XY          YZ          ZX
  --------------------------------------------------------------------------------------
  Alpha Z     1.29983     1.29983     1.29983
  Ewald     210.56061   294.39332   294.39332  -206.42219  -558.89805  -206.42219
  Hartree   893.25512   950.60382   950.60382  -138.89102  -373.98734  -138.89102
  E(xc)    -132.07315  -132.00746  -132.00746    -0.25308    -0.65698    -0.25308
  Local   -1747.68310 -1895.87099 -1895.87099   334.97721   915.93658   334.97721
  n-local   236.08698   242.46473   242.46473     1.06076    -3.86220     1.06043
  augment   119.25300   116.15773   116.15773     2.41609     8.64303     2.41642
  Kinetic   419.24542   422.89474   422.89474     7.10432    12.84609     7.10432
  Fock        0.00000     0.00000     0.00000     0.00000     0.00000     0.00000
  -------------------------------------------------------------------------------------
  Total      -0.05528    -0.06429    -0.06429    -0.00792     0.02113    -0.00792
  in kB      -0.02624    -0.03052    -0.03052    -0.00376     0.01003    -0.00376
  external pressure =       -0.03 kB  Pullay stress =        0.00 kB


 VOLUME and BASIS-vectors are now :
 -----------------------------------------------------------------------------
  energy-cutoff  :      450.00
  volume of cell :     3375.00
      direct lattice vectors                 reciprocal lattice vectors
    15.000000000  0.000000000  0.000000000     0.066666667  0.000000000  0.000000000
     0.000000000 15.000000000  0.000000000     0.000000000  0.066666667  0.000000000
     0.000000000  0.000000000 15.000000000     0.000000000  0.000000000  0.066666667

  length of vectors
    15.000000000 15.000000000 15.000000000     0.066666667  0.066666667  0.066666667


 FORCES acting on ions
    electron-ion (+dipol)            ewald-force                    non-local-force                 convergence-correction
 -----------------------------------------------------------------------------------------------
   0.133E+03 -.433E+02 -.433E+02   -.129E+03 0.423E+02 0.423E+02   -.316E+01 0.103E+01 0.103E+01   0.299E-02 -.144E-02 -.144E-02
   0.860E+02 0.192E+03 -.250E+03   -.864E+02 -.194E+03 0.252E+03   0.371E+00 0.159E+01 -.184E+01   0.712E-03 -.778E-03 0.198E-03
   0.860E+02 -.250E+03 0.192E+03   -.864E+02 0.252E+03 -.194E+03   0.371E+00 -.184E+01 0.159E+01   0.712E-03 0.198E-03 -.778E-03
   -.297E+03 0.986E+02 0.986E+02   0.302E+03 -.100E+03 -.100E+03   -.497E+01 0.166E+01 0.166E+01   -.147E-02 0.436E-03 0.436E-03
 -----------------------------------------------------------------------------------------------
   0.738E+01 -.243E+01 -.243E+01   -.568E-13 -.142E-13 0.142E-13   -.739E+01 0.243E+01 0.243E+01   0.295E-02 -.158E-02 -.158E-02
 
 
 POSITION                                       TOTAL-FORCE (eV/Angst)
 -----------------------------------------------------------------------------------
      7.76304      8.16024      8.16024        -0.008895      0.000307      0.000307
      7.42001      6.85004      9.70360         0.000099      0.000841     -0.002906
      7.42001      9.70360      6.85004         0.000099     -0.002906      0.000841
      9.64694      7.53612      7.53612         0.008697      0.001757      0.001757
 -----------------------------------------------------------------------------------
    total drift:                               -0.010177     -0.001029     -0.001039


--------------------------------------------------------------------------------------------------------



  FREE ENERGIE OF THE ION-ELECTRON SYSTEM (eV)
  ---------------------------------------------------
  free  energy   TOTEN  =       -11.48558920 eV

  energy  without entropy=      -11.47190439  energy(sigma->0) =      -11.48216800
 
 d Force = 0.1806296E-05[ 0.151E-05, 0.210E-05]  d Energy = 0.3605476E-05-0.180E-05
 d Force =-0.1256081E+00[-0.126E+00,-0.126E+00]  d Ewald  =-0.1256081E+00 0.144E-08


--------------------------------------------------------------------------------------------------------


    POTLOK:  cpu time    0.0693: real time    0.0693


--------------------------------------------------------------------------------------------------------




--------------------------------------------------------------------------------------------------------


  
 reached required accuracy - stopping structural energy minimisation
     LOOP+:  cpu time    1.5481: real time    1.5923
    4ORBIT:  cpu time    0.0002: real time    0.0002

 total amount of memory used by VASP on root node    39402. kBytes
========================================================================

   base      :      30000. kBytes
   nonlr-proj:        120. kBytes
   fftplans  :       2467. kBytes
   grid      :       6195. kBytes
   one-center:         31. kBytes
   wavefun   :        589. kBytes
 
  
  
 General timing and accounting informations for this job:
 ========================================================
  
                  Total CPU time used (sec):      118.472
                            User time (sec):      116.609
                          System time (sec):        1.863
                         Elapsed time (sec):      121.745
  
                   Maximum memory used (kb):      129604.
                   Average memory used (kb):           0.
  
                          Minor page faults:        46755
                          Major page faults:            0
                 Voluntary context switches:         8753
