 vasp.5.4.1 05Feb16 (build Mar 19 2020 08:54:17) complex                        
  
 executed on           IFC91_ompi date 2022.03.14  16:36:20
 running on   96 total cores
 distrk:  each k-point on   96 cores,    1 groups
 distr:  one band on NCORES_PER_BAND=  24 cores,    4 groups


--------------------------------------------------------------------------------------------------------


 INCAR:
 POTCAR:    PAW_PBE Nb_sv 25May2007               
 POTCAR:    PAW_PBE Cl 06Sep2000                  

 ----------------------------------------------------------------------------- 
|                                                                             |
|           W    W    AA    RRRRR   N    N  II  N    N   GGGG   !!!           |
|           W    W   A  A   R    R  NN   N  II  NN   N  G    G  !!!           |
|           W    W  A    A  R    R  N N  N  II  N N  N  G       !!!           |
|           W WW W  AAAAAA  RRRRR   N  N N  II  N  N N  G  GGG   !            |
|           WW  WW  A    A  R   R   N   NN  II  N   NN  G    G                |
|           W    W  A    A  R    R  N    N  II  N    N   GGGG   !!!           |
|                                                                             |
|      For optimal performance we recommend to set                            |
|        NCORE= 4 - approx SQRT( number of cores)                             |
|      NCORE specifies how many cores store one orbital (NPAR=cpu/NCORE).     |
|      This setting can  greatly improve the performance of VASP for DFT.     |
|      The default, NPAR=number of cores might be grossly inefficient         |
|      on modern multi-core architectures or massively parallel machines.     |
|      Do your own testing !!!!                                               |
|      Unfortunately you need to use the default for GW and RPA calculations. |
|      (for HF NCORE is supported but not extensively tested yet)             |
|                                                                             |
 ----------------------------------------------------------------------------- 

 POTCAR:    PAW_PBE Nb_sv 25May2007               
   VRHFIN =Nb: 4p5s4d                                                           
   LEXCH  = PE                                                                  
   EATOM  =  1555.1913 eV,  114.3033 Ry                                         
                                                                                
   TITEL  = PAW_PBE Nb_sv 25May2007                                             
   LULTRA =        F    use ultrasoft PP ?                                      
   IUNSCR =        1    unscreen: 0-lin 1-nonlin 2-no                           
   RPACOR =    1.800    partial core radius                                     
   POMASS =   92.910; ZVAL   =   13.000    mass and valenz                      
   RCORE  =    2.400    outmost cutoff radius                                   
   RWIGS  =    2.400; RWIGS  =    1.270    wigner-seitz radius (au A)           
   ENMAX  =  293.235; ENMIN  =  219.927 eV                                      
   ICORE  =        3    local potential                                         
   LCOR   =        T    correct aug charges                                     
   LPAW   =        T    paw PP                                                  
   EAUG   =  455.659                                                            
   DEXC   =    0.000                                                            
   RMAX   =    2.456    core radius for proj-oper                               
   RAUG   =    1.300    factor for augmentation sphere                          
   RDEP   =    2.451    radius for radial grids                                 
   RDEPT  =    1.956    core radius for aug-charge                              
                                                                                
   Atomic configuration                                                         
   11 entries                                                                   
     n  l   j            E        occ.                                          
     1  0  0.50    -18805.2457   2.0000                                         
     2  0  0.50     -2630.2869   2.0000                                         
     2  1  1.50     -2348.4046   6.0000                                         
     3  0  0.50      -438.8757   2.0000                                         
     3  1  1.50      -346.7588   6.0000                                         
     3  2  2.50      -196.2560  10.0000                                         
     4  0  0.50       -58.3859   2.0000                                         
     5  0  0.50        -3.9816   1.0000                                         
     4  1  1.50       -34.5141   6.0000                                         
     4  2  2.50        -3.0408   4.0000                                         
     4  3  2.50        -1.3606   0.0000                                         
   Description                                                                  
     l       E           TYP  RCUT    TYP  RCUT                                 
     0    -58.3859094     23  2.200                                             
     0     -3.9816262     23  2.200                                             
     1    -34.5140738     23  2.200                                             
     1     13.6058260     23  2.200                                             
     2     -3.0408010     23  2.200                                             
     2     -0.1283038     23  2.200                                             
     3     -1.3605826     23  2.400                                             
  local pseudopotential read in
  partial core-charges read in
  partial kinetic energy density read in
  atomic valenz-charges read in
  non local Contribution for L=           0  read in
    real space projection operators read in
  non local Contribution for L=           0  read in
    real space projection operators read in
  non local Contribution for L=           1  read in
    real space projection operators read in
  non local Contribution for L=           1  read in
    real space projection operators read in
  non local Contribution for L=           2  read in
    real space projection operators read in
  non local Contribution for L=           2  read in
    real space projection operators read in
    PAW grid and wavefunctions read in
 
   number of l-projection  operators is LMAX  =           6
   number of lm-projection operators is LMMAX =          18
 
 POTCAR:    PAW_PBE Cl 06Sep2000                  
   VRHFIN =Cl: s2p5                                                             
   LEXCH  = PE                                                                  
   EATOM  =   409.7259 eV,   30.1140 Ry                                         
                                                                                
   TITEL  = PAW_PBE Cl 06Sep2000                                                
   LULTRA =        F    use ultrasoft PP ?                                      
   IUNSCR =        1    unscreen: 0-lin 1-nonlin 2-no                           
   RPACOR =    1.500    partial core radius                                     
   POMASS =   35.453; ZVAL   =    7.000    mass and valenz                      
   RCORE  =    1.900    outmost cutoff radius                                   
   RWIGS  =    2.100; RWIGS  =    1.111    wigner-seitz radius (au A)           
   ENMAX  =  262.472; ENMIN  =  196.854 eV                                      
   ICORE  =        2    local potential                                         
   LCOR   =        T    correct aug charges                                     
   LPAW   =        T    paw PP                                                  
   EAUG   =  356.192                                                            
   DEXC   =    0.000                                                            
   RMAX   =    1.945    core radius for proj-oper                               
   RAUG   =    1.300    factor for augmentation sphere                          
   RDEP   =    2.020    radius for radial grids                                 
   RDEPT  =    1.678    core radius for aug-charge                              
                                                                                
   Atomic configuration                                                         
    6 entries                                                                   
     n  l   j            E        occ.                                          
     1  0  0.50     -2751.1850   2.0000                                         
     2  0  0.50      -252.6861   2.0000                                         
     2  1  1.50      -191.6157   6.0000                                         
     3  0  0.50       -20.6916   2.0000                                         
     3  1  0.50        -8.5949   5.0000                                         
     3  2  1.50        -8.1635   0.0000                                         
   Description                                                                  
     l       E           TYP  RCUT    TYP  RCUT                                 
     0    -20.6915656     23  1.900                                             
     0    -22.0521482     23  1.900                                             
     1     -8.5948577     23  1.900                                             
     1     -5.3847331     23  1.900                                             
     2     -8.1634956     23  1.900                                             
  local pseudopotential read in
  partial core-charges read in
  partial kinetic energy density read in
  atomic valenz-charges read in
  non local Contribution for L=           0  read in
    real space projection operators read in
  non local Contribution for L=           0  read in
    real space projection operators read in
  non local Contribution for L=           1  read in
    real space projection operators read in
  non local Contribution for L=           1  read in
    real space projection operators read in
    PAW grid and wavefunctions read in
 
   number of l-projection  operators is LMAX  =           4
   number of lm-projection operators is LMMAX =           8
 

 ----------------------------------------------------------------------------- 
|                                                                             |
|  ADVICE TO THIS USER RUNNING 'VASP/VAMP'   (HEAR YOUR MASTER'S VOICE ...):  |
|                                                                             |
|      You have a (more or less) 'small supercell' and for smaller cells      |
|      it is recommended  to use the reciprocal-space projection scheme!      |
|      The real space optimization is not  efficient for small cells and it   |
|      is also less accurate ...                                              |
|      Therefore set LREAL=.FALSE. in the  INCAR file                         |
|                                                                             |
 ----------------------------------------------------------------------------- 

 Optimization of the real space projectors (new method)

 maximal supplied QI-value         = 15.68
 optimisation between [QCUT,QGAM] = [ 10.82, 21.64] = [ 32.80,131.19] Ry 
 Optimized for a Real-space Cutoff    1.65 Angstroem

   l    n(q)    QCUT    max X(q) W(low)/X(q) W(high)/X(q)  e(spline) 
   0     11    10.822    10.201    0.23E-04    0.55E-05    0.31E-07
   0     11    10.822     8.174    0.35E-04    0.99E-05    0.65E-07
   1     10    10.822     3.488    0.18E-04    0.21E-04    0.55E-07
   1     10    10.822     4.917    0.15E-03    0.13E-03    0.29E-06
   2     10    10.822   153.744    0.28E-03    0.15E-03    0.13E-05
   2     10    10.822   126.342    0.28E-03    0.15E-03    0.13E-05
 Optimization of the real space projectors (new method)

 maximal supplied QI-value         = 19.84
 optimisation between [QCUT,QGAM] = [ 10.71, 21.63] = [ 32.15,130.99] Ry 
 Optimized for a Real-space Cutoff    1.19 Angstroem

   l    n(q)    QCUT    max X(q) W(low)/X(q) W(high)/X(q)  e(spline) 
   0      8    10.715   168.010    0.38E-03    0.52E-04    0.59E-07
   0      8    10.715   164.674    0.37E-03    0.50E-04    0.57E-07
   1      7    10.715    69.222    0.20E-03    0.59E-03    0.70E-07
   1      7    10.715    56.786    0.19E-03    0.58E-03    0.68E-07
  PAW_PBE Nb_sv 25May2007               :
 energy of atom  1       EATOM=-1555.1913
 kinetic energy error for atom=    0.0113 (will be added to EATOM!!)
  PAW_PBE Cl 06Sep2000                  :
 energy of atom  2       EATOM= -409.7259
 kinetic energy error for atom=    0.0057 (will be added to EATOM!!)
 
 
 POSCAR: Nb Cell                                 
  positions in direct lattice
  velocities in cartesian coordinates
  No initial velocities read in
 exchange correlation table for  LEXCH =        8
   RHO(1)=    0.500       N(1)  =     2000
   RHO(2)=  100.500       N(2)  =     4000
 


--------------------------------------------------------------------------------------------------------


 ion  position               nearest neighbor table
   1  0.500  0.550  0.550-   2 2.03   3 2.03   5 2.12   4 2.49
   2  0.500  0.454  0.646-   1 2.03
   3  0.500  0.646  0.454-   1 2.03
   4  0.650  0.500  0.500-   1 2.49
   5  0.500  0.650  0.650-   1 2.12
 
  LATTYP: Found a simple cubic cell.
 ALAT       =    15.0000000000
  
  Lattice vectors:
  
 A1 = (  15.0000000000,   0.0000000000,   0.0000000000)
 A2 = (   0.0000000000,  15.0000000000,   0.0000000000)
 A3 = (   0.0000000000,   0.0000000000,  15.0000000000)


Analysis of symmetry for initial positions (statically):
=====================================================================
 Subroutine PRICEL returns:
 Original cell was already a primitive cell.
 

 Routine SETGRP: Setting up the symmetry group for a 
 simple cubic supercell.


 Subroutine GETGRP returns: Found  2 space group operations
 (whereof  2 operations were pure point group operations)
 out of a pool of 48 trial point group operations.


The static configuration has the point symmetry C_1h.


Analysis of symmetry for dynamics (positions and initial velocities):
=====================================================================
 Subroutine PRICEL returns:
 Original cell was already a primitive cell.
 

 Routine SETGRP: Setting up the symmetry group for a 
 simple cubic supercell.


 Subroutine GETGRP returns: Found  2 space group operations
 (whereof  2 operations were pure point group operations)
 out of a pool of 48 trial point group operations.


The dynamic configuration has the point symmetry C_1h.


Analysis of structural, dynamic, and magnetic symmetry:
=====================================================================
 Subroutine PRICEL returns:
 Original cell was already a primitive cell.
 

 Routine SETGRP: Setting up the symmetry group for a 
 simple cubic supercell.


 Subroutine GETGRP returns: Found  2 space group operations
 (whereof  2 operations were pure point group operations)
 out of a pool of 48 trial point group operations.


The magnetic configuration has the point symmetry C_1h.


 Subroutine INISYM returns: Found  2 space group operations
 (whereof  2 operations are pure point group operations),
 and found     1 'primitive' translations

 
 
 KPOINTS: k-points                                

Automatic generation of k-mesh.
Space group operators:
 irot       det(A)        alpha          n_x          n_y          n_z        tau_x        tau_y        tau_z
    1     1.000000     0.000000     1.000000     0.000000     0.000000     0.000000     0.000000     0.000000
    2    -1.000000   180.000000     0.000000    -0.707107     0.707107     0.000000     0.000000     0.000000
 
 Subroutine IBZKPT returns following result:
 ===========================================
 
 Found      1 irreducible k-points:
 
 Following reciprocal coordinates:
            Coordinates               Weight
  0.000000  0.000000  0.000000      1.000000
 
 Following cartesian coordinates:
            Coordinates               Weight
  0.000000  0.000000  0.000000      1.000000
 


--------------------------------------------------------------------------------------------------------




 Dimension of arrays:
   k-points           NKPTS =      1   k-points in BZ     NKDIM =      1   number of bands    NBANDS=     28
   number of dos      NEDOS =    301   number of ions     NIONS =      5
   non local maximal  LDIM  =      6   non local SUM 2l+1 LMDIM =     18
   total plane-waves  NPLWV = 512000
   max r-space proj   IRMAX =   2898   max aug-charges    IRDMAX=   6623
   dimension x,y,z NGX =    80 NGY =   80 NGZ =   80
   dimension x,y,z NGXF=   160 NGYF=  160 NGZF=  160
   support grid    NGXF=   160 NGYF=  160 NGZF=  160
   ions per type =               1   4
 NGX,Y,Z   is equivalent  to a cutoff of   8.87,  8.87,  8.87 a.u.
 NGXF,Y,Z  is equivalent  to a cutoff of  17.73, 17.73, 17.73 a.u.


 I would recommend the setting:
   dimension x,y,z NGX =    78 NGY =   78 NGZ =   78
 SYSTEM =  clean (100) surface                     
 POSCAR =  Nb Cell                                 

 Startparameter for this run:
   NWRITE =      2    write-flag & timer
   PREC   = normal    normal or accurate (medium, high low for compatibility)
   ISTART =      0    job   : 0-new  1-cont  2-samecut
   ICHARG =      2    charge: 1-file 2-atom 10-const
   ISPIN  =      2    spin polarized calculation?
   LNONCOLLINEAR =      F non collinear calculations
   LSORBIT =      F    spin-orbit coupling
   INIWAV =      1    electr: 0-lowe 1-rand  2-diag
   LASPH  =      F    aspherical Exc in radial PAW
   METAGGA=      F    non-selfconsistent MetaGGA calc.

 Electronic Relaxation 1
   ENCUT  =  450.0 eV  33.07 Ry    5.75 a.u.  25.95 25.95 25.95*2*pi/ulx,y,z
   ENINI  =  450.0     initial cutoff
   ENAUG  =  455.7 eV  augmentation charge cutoff
   NELM   =     60;   NELMIN=  2; NELMDL= -5     # of ELM steps 
   EDIFF  = 0.1E-05   stopping-criterion for ELM
   LREAL  =      T    real-space projection
   NLSPLINE    = F    spline interpolate recip. space projectors
   LCOMPAT=      F    compatible to vasp.4.4
   GGA_COMPAT  = T    GGA compatible to vasp.4.4-vasp.4.6
   LMAXPAW     = -100 max onsite density
   LMAXMIX     =    2 max onsite mixed and CHGCAR
   VOSKOWN=      0    Vosko Wilk Nusair interpolation
   ROPT   =   -0.00050  -0.00050
 Ionic relaxation
   EDIFFG = -.1E-01   stopping-criterion for IOM
   NSW    =    250    number of steps for IOM
   NBLOCK =      1;   KBLOCK =    250    inner block; outer block 
   IBRION =      2    ionic relax: 0-MD 1-quasi-New 2-CG
   NFREE  =      1    steps in history (QN), initial steepest desc. (CG)
   ISIF   =      2    stress and relaxation
   IWAVPR =     11    prediction:  0-non 1-charg 2-wave 3-comb
   ISYM   =      2    0-nonsym 1-usesym 2-fastsym
   LCORR  =      T    Harris-Foulkes like correction to forces

   POTIM  = 0.1000    time-step for ionic-motion
   TEIN   =    0.0    initial temperature
   TEBEG  =    0.0;   TEEND  =   0.0 temperature during run
   SMASS  =  -3.00    Nose mass-parameter (am)
   estimated Nose-frequenzy (Omega)   =  0.10E-29 period in steps =****** mass=  -0.514E-26a.u.
   SCALEE = 1.0000    scale energy and forces
   NPACO  =    256;   APACO  = 16.0  distance and # of slots for P.C.
   PSTRESS=    0.0 pullay stress

  Mass of Ions in am
   POMASS =  92.91 35.45
  Ionic Valenz
   ZVAL   =  13.00  7.00
  Atomic Wigner-Seitz radii
   RWIGS  =  -1.00 -1.00
  virtual crystal weights 
   VCA    =   1.00  1.00
   NELECT =      41.0000    total number of electrons
   NUPDOWN=      -1.0000    fix difference up-down

 DOS related values:
   EMIN   =  10.00;   EMAX   =-10.00  energy-range for DOS
   EFERMI =   0.00
   ISMEAR =     2;   SIGMA  =   0.20  broadening in eV -4-tet -1-fermi 0-gaus

 Electronic relaxation 2 (details)
   IALGO  =     68    algorithm
   LDIAG  =      T    sub-space diagonalisation (order eigenvalues)
   LSUBROT=      F    optimize rotation matrix (better conditioning)
   TURBO    =      0    0=normal 1=particle mesh
   IRESTART =      0    0=no restart 2=restart with 2 vectors
   NREBOOT  =      0    no. of reboots
   NMIN     =      0    reboot dimension
   EREF     =   0.00    reference energy to select bands
   IMIX   =      4    mixing-type and parameters
     AMIX     =   0.40;   BMIX     =  1.00
     AMIX_MAG =   1.60;   BMIX_MAG =  1.00
     AMIN     =   0.10
     WC   =   100.;   INIMIX=   1;  MIXPRE=   1;  MAXMIX= -45

 Intra band minimization:
   WEIMIN = 0.0010     energy-eigenvalue tresh-hold
   EBREAK =  0.89E-08  absolut break condition
   DEPER  =   0.30     relativ break condition  

   TIME   =   0.40     timestep for ELM

  volume/ion in A,a.u.               =     675.00      4555.12
  Fermi-wavevector in a.u.,A,eV,Ry     =   0.376338  0.711176  1.926998  0.141630
  Thomas-Fermi vector in A             =   1.308106
 
 Write flags
   LWAVE  =      F    write WAVECAR
   LCHARG =      F    write CHGCAR
   LVTOT  =      F    write LOCPOT, total local potential
   LVHAR  =      F    write LOCPOT, Hartree potential only
   LELF   =      F    write electronic localiz. function (ELF)
   LORBIT =      0    0 simple, 1 ext, 2 COOP (PROOUT)


 Dipole corrections
   LMONO  =      F    monopole corrections only (constant potential shift)
   LDIPOL =      F    correct potential (dipole corrections)
   IDIPOL =      0    1-x, 2-y, 3-z, 4-all directions 
   EPSILON=  1.0000000 bulk dielectric constant

 Exchange correlation treatment:
   GGA     =    --    GGA type
   LEXCH   =     8    internal setting for exchange type
   VOSKOWN=      0    Vosko Wilk Nusair interpolation
   LHFCALC =     F    Hartree Fock is set to
   LHFONE  =     F    Hartree Fock one center treatment
   AEXX    =    0.0000 exact exchange contribution

 Linear response parameters
   LEPSILON=     F    determine dielectric tensor
   LRPA    =     F    only Hartree local field effects (RPA)
   LNABLA  =     F    use nabla operator in PAW spheres
   LVEL    =     F    velocity operator in full k-point grid
   LINTERFAST=   F  fast interpolation
   KINTER  =     0    interpolate to denser k-point grid
   CSHIFT  =0.1000    complex shift for real part using Kramers Kronig
   OMEGAMAX=  -1.0    maximum frequency
   DEG_THRESHOLD= 0.2000000E-02 threshold for treating states as degnerate
   RTIME   =    0.100 relaxation time in fs

 Orbital magnetization related:
   ORBITALMAG=     F  switch on orbital magnetization
   LCHIMAG   =     F  perturbation theory with respect to B field
   DQ        =  0.001000  dq finite difference perturbation B field



--------------------------------------------------------------------------------------------------------


 conjugate gradient relaxation of ions
 charge density and potential will be updated during run
 spin polarized calculation
 RMM-DIIS sequential band-by-band and
  variant of blocked Davidson during initial phase
 perform sub-space diagonalisation
    before iterative eigenvector-optimisation
 modified Broyden-mixing scheme, WC =      100.0
 initial mixing is a Kerker type mixing with AMIX =  0.4000 and BMIX =      1.0000
 Hartree-type preconditioning will be used
 using additional bands            7
 real space projection scheme for non local part
 use partial core corrections
 calculate Harris-corrections to forces 
   (improved forces if not selfconsistent)
 use gradient corrections 
 use of overlap-Matrix (Vanderbilt PP)
 Methfessel and Paxton  Order N= 2 SIGMA  =   0.20


--------------------------------------------------------------------------------------------------------


  energy-cutoff  :      450.00
  volume of cell :     3375.00
      direct lattice vectors                 reciprocal lattice vectors
    15.000000000  0.000000000  0.000000000     0.066666667  0.000000000  0.000000000
     0.000000000 15.000000000  0.000000000     0.000000000  0.066666667  0.000000000
     0.000000000  0.000000000 15.000000000     0.000000000  0.000000000  0.066666667

  length of vectors
    15.000000000 15.000000000 15.000000000     0.066666667  0.066666667  0.066666667


 
 k-points in units of 2pi/SCALE and weight: k-points                                
   0.00000000  0.00000000  0.00000000       1.000
 
 k-points in reciprocal lattice and weights: k-points                                
   0.00000000  0.00000000  0.00000000       1.000
 
 position of ions in fractional coordinates (direct lattice) 
   0.50000000  0.55002624  0.55002624
   0.50000000  0.45417254  0.64580122
   0.50000000  0.64580122  0.45417254
   0.65000000  0.50000000  0.50000000
   0.50000000  0.65000000  0.65000000
 
 position of ions in cartesian coordinates  (Angst):
   7.50000000  8.25039359  8.25039359
   7.50000000  6.81258808  9.68701833
   7.50000000  9.68701833  6.81258808
   9.75000000  7.50000000  7.50000000
   7.50000000  9.75000000  9.75000000
 


--------------------------------------------------------------------------------------------------------


 k-point  1 :   0.0000 0.0000 0.0000  plane waves:   72935

 maximum and minimum number of plane-waves per node :      3049     3028

 maximum number of plane-waves:     72935
 maximum index in each direction: 
   IXMAX=   25   IYMAX=   25   IZMAX=   25
   IXMIN=  -25   IYMIN=  -25   IZMIN=  -25

 WARNING: aliasing errors must be expected set NGX to 102 to avoid them
 WARNING: aliasing errors must be expected set NGY to 102 to avoid them
 WARNING: aliasing errors must be expected set NGZ to 102 to avoid them
 aliasing errors are usually negligible using standard VASP settings
 and one can safely disregard these warnings

 real space projection operators:
  total allocation   :        649.27 KBytes
  max/ min on nodes  :         56.58          6.06


 parallel 3D FFT for wavefunctions:
    minimum data exchange during FFTs selected (reduces bandwidth)
 parallel 3D FFT for charge:
    minimum data exchange during FFTs selected (reduces bandwidth)


 total amount of memory used by VASP on root node    39635. kBytes
========================================================================

   base      :      30000. kBytes
   nonlr-proj:        255. kBytes
   fftplans  :       2467. kBytes
   grid      :       6195. kBytes
   one-center:         31. kBytes
   wavefun   :        687. kBytes
 
     INWAV:  cpu time    0.0000: real time    0.0000
 Broyden mixing: mesh for mixing (old mesh)
   NGX = 51   NGY = 51   NGZ = 51
  (NGX  =160   NGY  =160   NGZ  =160)
  gives a total of 132651 points

 initial charge density was supplied:
 charge density of overlapping atoms calculated
 number of electron      41.0000000 magnetization       5.0000000
 keeping initial charge density in first step


--------------------------------------------------------------------------------------------------------


 Maximum index for non-local projection operator           69
 Maximum index for augmentation-charges          113 (set IRDMAX)


--------------------------------------------------------------------------------------------------------


 First call to EWALD:  gamma=   0.118
 Maximum number of real-space cells 3x 3x 3
 Maximum number of reciprocal cells 3x 3x 3

 FEWALD executed in parallel
    FEWALD:  cpu time    0.0028: real time    0.0028


----------------------------------------- Iteration    1(   1)  ---------------------------------------


    POTLOK:  cpu time    0.0801: real time    0.0863
    SETDIJ:  cpu time    0.0091: real time    0.0100
     EDDAV:  cpu time    0.1838: real time    0.2216
       DOS:  cpu time    0.0032: real time    0.0049
    --------------------------------------------
      LOOP:  cpu time    0.2804: real time    0.3318

 eigenvalue-minimisations  :   136
 total energy-change (2. order) : 0.4479318E+03  (-0.9476876E+03)
 number of electron      41.0000000 magnetization       5.0000000
 augmentation part       41.0000000 magnetization       5.0000000

 Free energy of the ion-electron system (eV)
  ---------------------------------------------------
  alpha Z        PSCENC =         2.85898671
  Ewald energy   TEWEN  =      1464.39383728
  -Hartree energ DENC   =     -4093.46049407
  -exchange      EXHF   =         0.00000000
  -V(xc)+E(xc)   XCENC  =       136.73015693
  PAW double counting   =      2534.49223025    -2515.86653987
  entropy T*S    EENTRO =        -0.01135182
  eigenvalues    EBANDS =      -275.26577833
  atomic energy  EATOM  =      3194.06076106
  Solvation  Ediel_sol  =         0.00000000
  ---------------------------------------------------
  free energy    TOTEN  =       447.93180814 eV

  energy without entropy =      447.94315996  energy(sigma->0) =      447.93464610


--------------------------------------------------------------------------------------------------------




----------------------------------------- Iteration    1(   2)  ---------------------------------------


     EDDAV:  cpu time    0.1510: real time    0.1510
       DOS:  cpu time    0.0002: real time    0.0002
    --------------------------------------------
      LOOP:  cpu time    0.1531: real time    0.1587

 eigenvalue-minimisations  :   200
 total energy-change (2. order) :-0.3136880E+03  (-0.3061946E+03)
 number of electron      41.0000000 magnetization       5.0000000
 augmentation part       41.0000000 magnetization       5.0000000

 Free energy of the ion-electron system (eV)
  ---------------------------------------------------
  alpha Z        PSCENC =         2.85898671
  Ewald energy   TEWEN  =      1464.39383728
  -Hartree energ DENC   =     -4093.46049407
  -exchange      EXHF   =         0.00000000
  -V(xc)+E(xc)   XCENC  =       136.73015693
  PAW double counting   =      2534.49223025    -2515.86653987
  entropy T*S    EENTRO =         0.01630123
  eigenvalues    EBANDS =      -588.98139016
  atomic energy  EATOM  =      3194.06076106
  Solvation  Ediel_sol  =         0.00000000
  ---------------------------------------------------
  free energy    TOTEN  =       134.24384936 eV

  energy without entropy =      134.22754813  energy(sigma->0) =      134.23977405


--------------------------------------------------------------------------------------------------------




----------------------------------------- Iteration    1(   3)  ---------------------------------------


     EDDAV:  cpu time    0.1252: real time    0.1252
       DOS:  cpu time    0.0003: real time    0.0003
    --------------------------------------------
      LOOP:  cpu time    0.1264: real time    0.1326

 eigenvalue-minimisations  :   160
 total energy-change (2. order) :-0.1368526E+03  (-0.1364679E+03)
 number of electron      41.0000000 magnetization       5.0000000
 augmentation part       41.0000000 magnetization       5.0000000

 Free energy of the ion-electron system (eV)
  ---------------------------------------------------
  alpha Z        PSCENC =         2.85898671
  Ewald energy   TEWEN  =      1464.39383728
  -Hartree energ DENC   =     -4093.46049407
  -exchange      EXHF   =         0.00000000
  -V(xc)+E(xc)   XCENC  =       136.73015693
  PAW double counting   =      2534.49223025    -2515.86653987
  entropy T*S    EENTRO =         0.00250328
  eigenvalues    EBANDS =      -725.82018105
  atomic energy  EATOM  =      3194.06076106
  Solvation  Ediel_sol  =         0.00000000
  ---------------------------------------------------
  free energy    TOTEN  =        -2.60873949 eV

  energy without entropy =       -2.61124276  energy(sigma->0) =       -2.60936530


--------------------------------------------------------------------------------------------------------




----------------------------------------- Iteration    1(   4)  ---------------------------------------


     EDDAV:  cpu time    0.1357: real time    0.1357
       DOS:  cpu time    0.0002: real time    0.0002
    --------------------------------------------
      LOOP:  cpu time    0.1369: real time    0.1430

 eigenvalue-minimisations  :   176
 total energy-change (2. order) :-0.1792623E+02  (-0.1790017E+02)
 number of electron      41.0000000 magnetization       5.0000000
 augmentation part       41.0000000 magnetization       5.0000000

 Free energy of the ion-electron system (eV)
  ---------------------------------------------------
  alpha Z        PSCENC =         2.85898671
  Ewald energy   TEWEN  =      1464.39383728
  -Hartree energ DENC   =     -4093.46049407
  -exchange      EXHF   =         0.00000000
  -V(xc)+E(xc)   XCENC  =       136.73015693
  PAW double counting   =      2534.49223025    -2515.86653987
  entropy T*S    EENTRO =         0.00550534
  eigenvalues    EBANDS =      -743.74940831
  atomic energy  EATOM  =      3194.06076106
  Solvation  Ediel_sol  =         0.00000000
  ---------------------------------------------------
  free energy    TOTEN  =       -20.53496468 eV

  energy without entropy =      -20.54047002  energy(sigma->0) =      -20.53634101


--------------------------------------------------------------------------------------------------------




----------------------------------------- Iteration    1(   5)  ---------------------------------------


     EDDAV:  cpu time    0.1410: real time    0.1410
       DOS:  cpu time    0.0002: real time    0.0002
    CHARGE:  cpu time    0.0965: real time    0.0980
    MIXING:  cpu time    0.0091: real time    0.0103
    --------------------------------------------
      LOOP:  cpu time    0.2479: real time    0.2558

 eigenvalue-minimisations  :   184
 total energy-change (2. order) :-0.5737605E+00  (-0.5696525E+00)
 number of electron      40.9999984 magnetization       4.0423359
 augmentation part       -2.7400483 magnetization       3.0673173

 Broyden mixing:
  rms(total) = 0.17374E+01    rms(broyden)= 0.17373E+01
  rms(prec ) = 0.18158E+01
  weight for this iteration     100.00

 Free energy of the ion-electron system (eV)
  ---------------------------------------------------
  alpha Z        PSCENC =         2.85898671
  Ewald energy   TEWEN  =      1464.39383728
  -Hartree energ DENC   =     -4093.46049407
  -exchange      EXHF   =         0.00000000
  -V(xc)+E(xc)   XCENC  =       136.73015693
  PAW double counting   =      2534.49223025    -2515.86653987
  entropy T*S    EENTRO =         0.02249310
  eigenvalues    EBANDS =      -744.34015654
  atomic energy  EATOM  =      3194.06076106
  Solvation  Ediel_sol  =         0.00000000
  ---------------------------------------------------
  free energy    TOTEN  =       -21.10872515 eV

  energy without entropy =      -21.13121825  energy(sigma->0) =      -21.11434843


--------------------------------------------------------------------------------------------------------




----------------------------------------- Iteration    1(   6)  ---------------------------------------


    POTLOK:  cpu time    0.0680: real time    0.0680
    SETDIJ:  cpu time    0.0042: real time    0.0042
    EDDIAG:  cpu time    0.0259: real time    0.0269
  RMM-DIIS:  cpu time    0.0914: real time    0.0915
    ORTHCH:  cpu time    0.0048: real time    0.0048
       DOS:  cpu time    0.0002: real time    0.0002
    CHARGE:  cpu time    0.0893: real time    0.0893
    MIXING:  cpu time    0.0028: real time    0.0037
    --------------------------------------------
      LOOP:  cpu time    0.2880: real time    0.2962

 eigenvalue-minimisations  :   122
 total energy-change (2. order) : 0.8370773E+01  (-0.1500644E+01)
 number of electron      40.9999985 magnetization       3.0967942
 augmentation part       -2.5670594 magnetization       2.1672572

 Broyden mixing:
  rms(total) = 0.97440E+00    rms(broyden)= 0.97439E+00
  rms(prec ) = 0.99706E+00
  weight for this iteration     100.00

 eigenvalues of (default mixing * dielectric matrix)
  average eigenvalue GAMMA=   1.0308
  1.0308

 Free energy of the ion-electron system (eV)
  ---------------------------------------------------
  alpha Z        PSCENC =         2.85898671
  Ewald energy   TEWEN  =      1464.39383728
  -Hartree energ DENC   =     -4089.14271858
  -exchange      EXHF   =         0.00000000
  -V(xc)+E(xc)   XCENC  =       142.61526631
  PAW double counting   =      3006.56593390    -2988.82472295
  entropy T*S    EENTRO =         0.00550610
  eigenvalues    EBANDS =      -745.27080159
  atomic energy  EATOM  =      3194.06076106
  Solvation  Ediel_sol  =         0.00000000
  ---------------------------------------------------
  free energy    TOTEN  =       -12.73795176 eV

  energy without entropy =      -12.74345786  energy(sigma->0) =      -12.73932828


--------------------------------------------------------------------------------------------------------




----------------------------------------- Iteration    1(   7)  ---------------------------------------


    POTLOK:  cpu time    0.0644: real time    0.0644
    SETDIJ:  cpu time    0.0038: real time    0.0038
    EDDIAG:  cpu time    0.0217: real time    0.0217
  RMM-DIIS:  cpu time    0.0749: real time    0.0749
    ORTHCH:  cpu time    0.0049: real time    0.0049
       DOS:  cpu time    0.0002: real time    0.0002
    CHARGE:  cpu time    0.0813: real time    0.0813
    MIXING:  cpu time    0.0021: real time    0.0026
    --------------------------------------------
      LOOP:  cpu time    0.2544: real time    0.2613

 eigenvalue-minimisations  :   130
 total energy-change (2. order) :-0.2096724E+01  (-0.3701224E+00)
 number of electron      40.9999985 magnetization       2.5331815
 augmentation part       -2.5235407 magnetization       1.5988147

 Broyden mixing:
  rms(total) = 0.54111E+00    rms(broyden)= 0.54111E+00
  rms(prec ) = 0.55228E+00
  weight for this iteration     100.00

 eigenvalues of (default mixing * dielectric matrix)
  average eigenvalue GAMMA=   1.0324
  1.3986  0.6661

 Free energy of the ion-electron system (eV)
  ---------------------------------------------------
  alpha Z        PSCENC =         2.85898671
  Ewald energy   TEWEN  =      1464.39383728
  -Hartree energ DENC   =     -4103.50850099
  -exchange      EXHF   =         0.00000000
  -V(xc)+E(xc)   XCENC  =       141.86943939
  PAW double counting   =      3528.15269767    -3509.79693730
  entropy T*S    EENTRO =         0.00550610
  eigenvalues    EBANDS =      -732.87046605
  atomic energy  EATOM  =      3194.06076106
  Solvation  Ediel_sol  =         0.00000000
  ---------------------------------------------------
  free energy    TOTEN  =       -14.83467613 eV

  energy without entropy =      -14.84018223  energy(sigma->0) =      -14.83605265


--------------------------------------------------------------------------------------------------------




----------------------------------------- Iteration    1(   8)  ---------------------------------------


    POTLOK:  cpu time    0.0647: real time    0.0647
    SETDIJ:  cpu time    0.0036: real time    0.0036
    EDDIAG:  cpu time    0.0217: real time    0.0217
  RMM-DIIS:  cpu time    0.0786: real time    0.0786
    ORTHCH:  cpu time    0.0049: real time    0.0049
       DOS:  cpu time    0.0002: real time    0.0002
    CHARGE:  cpu time    0.0814: real time    0.0814
    MIXING:  cpu time    0.0020: real time    0.0020
    --------------------------------------------
      LOOP:  cpu time    0.2587: real time    0.2651

 eigenvalue-minimisations  :   132
 total energy-change (2. order) :-0.2073869E+01  (-0.1175169E+00)
 number of electron      40.9999984 magnetization       2.0065281
 augmentation part       -2.5663357 magnetization       1.0629629

 Broyden mixing:
  rms(total) = 0.27082E+00    rms(broyden)= 0.27082E+00
  rms(prec ) = 0.27632E+00
  weight for this iteration     100.00

 eigenvalues of (default mixing * dielectric matrix)
  average eigenvalue GAMMA=   1.1874
  1.9714  0.9775  0.6134

 Free energy of the ion-electron system (eV)
  ---------------------------------------------------
  alpha Z        PSCENC =         2.85898671
  Ewald energy   TEWEN  =      1464.39383728
  -Hartree energ DENC   =     -4111.81114445
  -exchange      EXHF   =         0.00000000
  -V(xc)+E(xc)   XCENC  =       140.45465576
  PAW double counting   =      3748.70761537    -3729.54552634
  entropy T*S    EENTRO =         0.00550610
  eigenvalues    EBANDS =      -726.03323662
  atomic energy  EATOM  =      3194.06076106
  Solvation  Ediel_sol  =         0.00000000
  ---------------------------------------------------
  free energy    TOTEN  =       -16.90854514 eV

  energy without entropy =      -16.91405124  energy(sigma->0) =      -16.90992166


--------------------------------------------------------------------------------------------------------




----------------------------------------- Iteration    1(   9)  ---------------------------------------


    POTLOK:  cpu time    0.0646: real time    0.0646
    SETDIJ:  cpu time    0.0036: real time    0.0036
    EDDIAG:  cpu time    0.0217: real time    0.0217
  RMM-DIIS:  cpu time    0.0787: real time    0.0787
    ORTHCH:  cpu time    0.0047: real time    0.0047
       DOS:  cpu time    0.0002: real time    0.0002
    CHARGE:  cpu time    0.0848: real time    0.0848
    MIXING:  cpu time    0.0021: real time    0.0021
    --------------------------------------------
      LOOP:  cpu time    0.2617: real time    0.2681

 eigenvalue-minimisations  :   129
 total energy-change (2. order) :-0.1200573E+01  (-0.4816201E-01)
 number of electron      40.9999984 magnetization       1.6309194
 augmentation part       -2.5893392 magnetization       0.6765253

 Broyden mixing:
  rms(total) = 0.10016E+00    rms(broyden)= 0.10016E+00
  rms(prec ) = 0.10826E+00
  weight for this iteration     100.00

 eigenvalues of (default mixing * dielectric matrix)
  average eigenvalue GAMMA=   1.2632
  2.3538  1.2036  0.8389  0.6563

 Free energy of the ion-electron system (eV)
  ---------------------------------------------------
  alpha Z        PSCENC =         2.85898671
  Ewald energy   TEWEN  =      1464.39383728
  -Hartree energ DENC   =     -4114.84582874
  -exchange      EXHF   =         0.00000000
  -V(xc)+E(xc)   XCENC  =       139.56788020
  PAW double counting   =      3891.00294320    -3871.04441115
  entropy T*S    EENTRO =         0.00550610
  eigenvalues    EBANDS =      -724.10879230
  atomic energy  EATOM  =      3194.06076106
  Solvation  Ediel_sol  =         0.00000000
  ---------------------------------------------------
  free energy    TOTEN  =       -18.10911764 eV

  energy without entropy =      -18.11462374  energy(sigma->0) =      -18.11049417


--------------------------------------------------------------------------------------------------------




----------------------------------------- Iteration    1(  10)  ---------------------------------------


    POTLOK:  cpu time    0.0646: real time    0.0646
    SETDIJ:  cpu time    0.0036: real time    0.0036
    EDDIAG:  cpu time    0.0218: real time    0.0218
  RMM-DIIS:  cpu time    0.0775: real time    0.0775
    ORTHCH:  cpu time    0.0049: real time    0.0049
       DOS:  cpu time    0.0002: real time    0.0002
    CHARGE:  cpu time    0.0812: real time    0.0812
    MIXING:  cpu time    0.0023: real time    0.0023
    --------------------------------------------
      LOOP:  cpu time    0.2574: real time    0.2639

 eigenvalue-minimisations  :   131
 total energy-change (2. order) :-0.6292817E+00  (-0.1942557E-01)
 number of electron      40.9999984 magnetization       1.4197184
 augmentation part       -2.5874090 magnetization       0.4615048

 Broyden mixing:
  rms(total) = 0.49728E-01    rms(broyden)= 0.49725E-01
  rms(prec ) = 0.55059E-01
  weight for this iteration     100.00

 eigenvalues of (default mixing * dielectric matrix)
  average eigenvalue GAMMA=   1.2274
  2.3985  1.4284  0.8846  0.8073  0.6183

 Free energy of the ion-electron system (eV)
  ---------------------------------------------------
  alpha Z        PSCENC =         2.85898671
  Ewald energy   TEWEN  =      1464.39383728
  -Hartree energ DENC   =     -4113.94284637
  -exchange      EXHF   =         0.00000000
  -V(xc)+E(xc)   XCENC  =       139.04143183
  PAW double counting   =      3957.32406063    -3936.92903433
  entropy T*S    EENTRO =         0.00550610
  eigenvalues    EBANDS =      -725.55110226
  atomic energy  EATOM  =      3194.06076106
  Solvation  Ediel_sol  =         0.00000000
  ---------------------------------------------------
  free energy    TOTEN  =       -18.73839934 eV

  energy without entropy =      -18.74390544  energy(sigma->0) =      -18.73977586


--------------------------------------------------------------------------------------------------------




----------------------------------------- Iteration    1(  11)  ---------------------------------------


    POTLOK:  cpu time    0.0647: real time    0.0647
    SETDIJ:  cpu time    0.0036: real time    0.0036
    EDDIAG:  cpu time    0.0218: real time    0.0218
  RMM-DIIS:  cpu time    0.0787: real time    0.0787
    ORTHCH:  cpu time    0.0048: real time    0.0048
       DOS:  cpu time    0.0002: real time    0.0002
    CHARGE:  cpu time    0.0812: real time    0.0812
    MIXING:  cpu time    0.0024: real time    0.0030
    --------------------------------------------
      LOOP:  cpu time    0.2588: real time    0.2655

 eigenvalue-minimisations  :   132
 total energy-change (2. order) :-0.5611297E+00  (-0.9983683E-02)
 number of electron      40.9999984 magnetization       1.2828533
 augmentation part       -2.5951108 magnetization       0.3217057

 Broyden mixing:
  rms(total) = 0.30507E-01    rms(broyden)= 0.30506E-01
  rms(prec ) = 0.34429E-01
  weight for this iteration     100.00

 eigenvalues of (default mixing * dielectric matrix)
  average eigenvalue GAMMA=   1.2429
  2.2141  2.0350  0.9417  0.9417  0.7082  0.6170

 Free energy of the ion-electron system (eV)
  ---------------------------------------------------
  alpha Z        PSCENC =         2.85898671
  Ewald energy   TEWEN  =      1464.39383728
  -Hartree energ DENC   =     -4113.07582189
  -exchange      EXHF   =         0.00000000
  -V(xc)+E(xc)   XCENC  =       138.49067179
  PAW double counting   =      3955.74996034    -3935.08404765
  entropy T*S    EENTRO =         0.00550610
  eigenvalues    EBANDS =      -726.69938283
  atomic energy  EATOM  =      3194.06076106
  Solvation  Ediel_sol  =         0.00000000
  ---------------------------------------------------
  free energy    TOTEN  =       -19.29952908 eV

  energy without entropy =      -19.30503519  energy(sigma->0) =      -19.30090561


--------------------------------------------------------------------------------------------------------




----------------------------------------- Iteration    1(  12)  ---------------------------------------


    POTLOK:  cpu time    0.0647: real time    0.0647
    SETDIJ:  cpu time    0.0036: real time    0.0036
    EDDIAG:  cpu time    0.0216: real time    0.0216
  RMM-DIIS:  cpu time    0.0803: real time    0.0803
    ORTHCH:  cpu time    0.0048: real time    0.0048
       DOS:  cpu time    0.0002: real time    0.0002
    CHARGE:  cpu time    0.0813: real time    0.0813
    MIXING:  cpu time    0.0025: real time    0.0025
    --------------------------------------------
      LOOP:  cpu time    0.2602: real time    0.2668

 eigenvalue-minimisations  :   134
 total energy-change (2. order) :-0.3338929E+00  (-0.4436154E-02)
 number of electron      40.9999984 magnetization       1.1281714
 augmentation part       -2.6009886 magnetization       0.1665357

 Broyden mixing:
  rms(total) = 0.20805E-01    rms(broyden)= 0.20805E-01
  rms(prec ) = 0.23988E-01
  weight for this iteration     100.00

 eigenvalues of (default mixing * dielectric matrix)
  average eigenvalue GAMMA=   1.3327
  2.4913  2.4913  1.1254  1.1254  0.8437  0.6258  0.6258

 Free energy of the ion-electron system (eV)
  ---------------------------------------------------
  alpha Z        PSCENC =         2.85898671
  Ewald energy   TEWEN  =      1464.39383728
  -Hartree energ DENC   =     -4112.75194487
  -exchange      EXHF   =         0.00000000
  -V(xc)+E(xc)   XCENC  =       138.14809871
  PAW double counting   =      3946.12178319    -3925.28754707
  entropy T*S    EENTRO =         0.00550610
  eigenvalues    EBANDS =      -727.18290308
  atomic energy  EATOM  =      3194.06076106
  Solvation  Ediel_sol  =         0.00000000
  ---------------------------------------------------
  free energy    TOTEN  =       -19.63342197 eV

  energy without entropy =      -19.63892807  energy(sigma->0) =      -19.63479850


--------------------------------------------------------------------------------------------------------




----------------------------------------- Iteration    1(  13)  ---------------------------------------


    POTLOK:  cpu time    0.0648: real time    0.0648
    SETDIJ:  cpu time    0.0036: real time    0.0036
    EDDIAG:  cpu time    0.0216: real time    0.0216
  RMM-DIIS:  cpu time    0.0791: real time    0.0791
    ORTHCH:  cpu time    0.0048: real time    0.0048
       DOS:  cpu time    0.0002: real time    0.0002
    CHARGE:  cpu time    0.0813: real time    0.0813
    MIXING:  cpu time    0.0026: real time    0.0026
    --------------------------------------------
      LOOP:  cpu time    0.2595: real time    0.2656

 eigenvalue-minimisations  :   132
 total energy-change (2. order) :-0.2543346E+00  (-0.2507153E-02)
 number of electron      40.9999984 magnetization       1.0502425
 augmentation part       -2.6030770 magnetization       0.0872030

 Broyden mixing:
  rms(total) = 0.99865E-02    rms(broyden)= 0.99857E-02
  rms(prec ) = 0.12882E-01
  weight for this iteration     100.00

 eigenvalues of (default mixing * dielectric matrix)
  average eigenvalue GAMMA=   1.3788
  2.7766  2.7766  1.5389  0.9876  0.9876  0.7519  0.6056  0.6056

 Free energy of the ion-electron system (eV)
  ---------------------------------------------------
  alpha Z        PSCENC =         2.85898671
  Ewald energy   TEWEN  =      1464.39383728
  -Hartree energ DENC   =     -4112.38830298
  -exchange      EXHF   =         0.00000000
  -V(xc)+E(xc)   XCENC  =       137.87620357
  PAW double counting   =      3936.34403925    -3915.34323715
  entropy T*S    EENTRO =         0.00550610
  eigenvalues    EBANDS =      -727.69555037
  atomic energy  EATOM  =      3194.06076106
  Solvation  Ediel_sol  =         0.00000000
  ---------------------------------------------------
  free energy    TOTEN  =       -19.88775652 eV

  energy without entropy =      -19.89326262  energy(sigma->0) =      -19.88913305


--------------------------------------------------------------------------------------------------------




----------------------------------------- Iteration    1(  14)  ---------------------------------------


    POTLOK:  cpu time    0.0646: real time    0.0646
    SETDIJ:  cpu time    0.0036: real time    0.0036
    EDDIAG:  cpu time    0.0215: real time    0.0215
  RMM-DIIS:  cpu time    0.0806: real time    0.0806
    ORTHCH:  cpu time    0.0047: real time    0.0047
       DOS:  cpu time    0.0002: real time    0.0002
    CHARGE:  cpu time    0.0832: real time    0.0832
    MIXING:  cpu time    0.0028: real time    0.0028
    --------------------------------------------
      LOOP:  cpu time    0.2625: real time    0.2690

 eigenvalue-minimisations  :   139
 total energy-change (2. order) :-0.7955763E-01  (-0.9362967E-03)
 number of electron      40.9999984 magnetization       1.0166962
 augmentation part       -2.6028805 magnetization       0.0530050

 Broyden mixing:
  rms(total) = 0.60224E-02    rms(broyden)= 0.60220E-02
  rms(prec ) = 0.85002E-02
  weight for this iteration     100.00

 eigenvalues of (default mixing * dielectric matrix)
  average eigenvalue GAMMA=   1.3836
  3.3805  2.4706  1.6301  1.2445  0.9283  0.8702  0.6937  0.6394  0.5954

 Free energy of the ion-electron system (eV)
  ---------------------------------------------------
  alpha Z        PSCENC =         2.85898671
  Ewald energy   TEWEN  =      1464.39383728
  -Hartree energ DENC   =     -4112.27097739
  -exchange      EXHF   =         0.00000000
  -V(xc)+E(xc)   XCENC  =       137.79321518
  PAW double counting   =      3934.30805753    -3913.25229697
  entropy T*S    EENTRO =         0.00550610
  eigenvalues    EBANDS =      -727.86440367
  atomic energy  EATOM  =      3194.06076106
  Solvation  Ediel_sol  =         0.00000000
  ---------------------------------------------------
  free energy    TOTEN  =       -19.96731415 eV

  energy without entropy =      -19.97282026  energy(sigma->0) =      -19.96869068


--------------------------------------------------------------------------------------------------------




----------------------------------------- Iteration    1(  15)  ---------------------------------------


    POTLOK:  cpu time    0.0646: real time    0.0646
    SETDIJ:  cpu time    0.0036: real time    0.0036
    EDDIAG:  cpu time    0.0218: real time    0.0218
  RMM-DIIS:  cpu time    0.0832: real time    0.0832
    ORTHCH:  cpu time    0.0048: real time    0.0048
       DOS:  cpu time    0.0002: real time    0.0002
    CHARGE:  cpu time    0.0815: real time    0.0815
    MIXING:  cpu time    0.0030: real time    0.0030
    --------------------------------------------
      LOOP:  cpu time    0.2640: real time    0.2704

 eigenvalue-minimisations  :   141
 total energy-change (2. order) :-0.1849453E-01  (-0.2903145E-03)
 number of electron      40.9999984 magnetization       1.0000690
 augmentation part       -2.6037741 magnetization       0.0357029

 Broyden mixing:
  rms(total) = 0.31965E-02    rms(broyden)= 0.31961E-02
  rms(prec ) = 0.57014E-02
  weight for this iteration     100.00

 eigenvalues of (default mixing * dielectric matrix)
  average eigenvalue GAMMA=   1.3414
  3.5465  2.4066  1.5521  1.5521  0.8696  0.8696  0.6942  0.6942  0.6143  0.6143

 Free energy of the ion-electron system (eV)
  ---------------------------------------------------
  alpha Z        PSCENC =         2.85898671
  Ewald energy   TEWEN  =      1464.39383728
  -Hartree energ DENC   =     -4112.23290718
  -exchange      EXHF   =         0.00000000
  -V(xc)+E(xc)   XCENC  =       137.77140144
  PAW double counting   =      3932.74062711    -3911.66327931
  entropy T*S    EENTRO =         0.00550610
  eigenvalues    EBANDS =      -727.92074190
  atomic energy  EATOM  =      3194.06076106
  Solvation  Ediel_sol  =         0.00000000
  ---------------------------------------------------
  free energy    TOTEN  =       -19.98580868 eV

  energy without entropy =      -19.99131478  energy(sigma->0) =      -19.98718521


--------------------------------------------------------------------------------------------------------




----------------------------------------- Iteration    1(  16)  ---------------------------------------


    POTLOK:  cpu time    0.0647: real time    0.0647
    SETDIJ:  cpu time    0.0036: real time    0.0035
    EDDIAG:  cpu time    0.0220: real time    0.0220
  RMM-DIIS:  cpu time    0.0826: real time    0.0827
    ORTHCH:  cpu time    0.0048: real time    0.0048
       DOS:  cpu time    0.0002: real time    0.0002
    CHARGE:  cpu time    0.0813: real time    0.0813
    MIXING:  cpu time    0.0030: real time    0.0030
    --------------------------------------------
      LOOP:  cpu time    0.2636: real time    0.2701

 eigenvalue-minimisations  :   137
 total energy-change (2. order) :-0.2697451E-02  (-0.8227702E-04)
 number of electron      40.9999984 magnetization       0.9875507
 augmentation part       -2.6046052 magnetization       0.0227888

 Broyden mixing:
  rms(total) = 0.19522E-02    rms(broyden)= 0.19520E-02
  rms(prec ) = 0.42603E-02
  weight for this iteration     100.00

 eigenvalues of (default mixing * dielectric matrix)
  average eigenvalue GAMMA=   1.3727
  3.8219  2.2194  1.8330  1.8330  0.9734  0.9734  0.8235  0.7979  0.6396  0.5921
  0.5921

 Free energy of the ion-electron system (eV)
  ---------------------------------------------------
  alpha Z        PSCENC =         2.85898671
  Ewald energy   TEWEN  =      1464.39383728
  -Hartree energ DENC   =     -4112.23501607
  -exchange      EXHF   =         0.00000000
  -V(xc)+E(xc)   XCENC  =       137.76670498
  PAW double counting   =      3932.87558471    -3911.78940515
  entropy T*S    EENTRO =         0.00550610
  eigenvalues    EBANDS =      -727.92546576
  atomic energy  EATOM  =      3194.06076106
  Solvation  Ediel_sol  =         0.00000000
  ---------------------------------------------------
  free energy    TOTEN  =       -19.98850613 eV

  energy without entropy =      -19.99401223  energy(sigma->0) =      -19.98988266


--------------------------------------------------------------------------------------------------------




----------------------------------------- Iteration    1(  17)  ---------------------------------------


    POTLOK:  cpu time    0.0647: real time    0.0647
    SETDIJ:  cpu time    0.0036: real time    0.0036
    EDDIAG:  cpu time    0.0218: real time    0.0218
  RMM-DIIS:  cpu time    0.0733: real time    0.0733
    ORTHCH:  cpu time    0.0048: real time    0.0048
       DOS:  cpu time    0.0002: real time    0.0002
    CHARGE:  cpu time    0.0812: real time    0.0812
    MIXING:  cpu time    0.0032: real time    0.0032
    --------------------------------------------
      LOOP:  cpu time    0.2541: real time    0.2606

 eigenvalue-minimisations  :   128
 total energy-change (2. order) :-0.7402635E-04  (-0.3800128E-04)
 number of electron      40.9999984 magnetization       0.9873998
 augmentation part       -2.6049984 magnetization       0.0223384

 Broyden mixing:
  rms(total) = 0.17950E-02    rms(broyden)= 0.17948E-02
  rms(prec ) = 0.31096E-02
  weight for this iteration     100.00

 eigenvalues of (default mixing * dielectric matrix)
  average eigenvalue GAMMA=   1.3956
  3.9218  2.2817  2.2817  1.4894  1.4894  0.9547  0.9547  0.8087  0.7161  0.6562
  0.5961  0.5961

 Free energy of the ion-electron system (eV)
  ---------------------------------------------------
  alpha Z        PSCENC =         2.85898671
  Ewald energy   TEWEN  =      1464.39383728
  -Hartree energ DENC   =     -4112.21292532
  -exchange      EXHF   =         0.00000000
  -V(xc)+E(xc)   XCENC  =       137.76422350
  PAW double counting   =      3933.39442758    -3912.30653407
  entropy T*S    EENTRO =         0.00550610
  eigenvalues    EBANDS =      -727.94686302
  atomic energy  EATOM  =      3194.06076106
  Solvation  Ediel_sol  =         0.00000000
  ---------------------------------------------------
  free energy    TOTEN  =       -19.98858016 eV

  energy without entropy =      -19.99408626  energy(sigma->0) =      -19.98995668


--------------------------------------------------------------------------------------------------------




----------------------------------------- Iteration    1(  18)  ---------------------------------------


    POTLOK:  cpu time    0.0648: real time    0.0648
    SETDIJ:  cpu time    0.0036: real time    0.0036
    EDDIAG:  cpu time    0.0218: real time    0.0218
  RMM-DIIS:  cpu time    0.0742: real time    0.0742
    ORTHCH:  cpu time    0.0048: real time    0.0048
       DOS:  cpu time    0.0002: real time    0.0002
    CHARGE:  cpu time    0.0812: real time    0.0812
    MIXING:  cpu time    0.0033: real time    0.0033
    --------------------------------------------
      LOOP:  cpu time    0.2552: real time    0.2615

 eigenvalue-minimisations  :   126
 total energy-change (2. order) :-0.8966536E-03  (-0.2303888E-04)
 number of electron      40.9999984 magnetization       0.9878305
 augmentation part       -2.6050519 magnetization       0.0226653

 Broyden mixing:
  rms(total) = 0.11037E-02    rms(broyden)= 0.11036E-02
  rms(prec ) = 0.18370E-02
  weight for this iteration     100.00

 eigenvalues of (default mixing * dielectric matrix)
  average eigenvalue GAMMA=   1.4276
  4.2400  2.4417  2.4417  1.6606  1.6606  0.9458  0.9458  0.9950  0.7560  0.6365
  0.6365  0.5992  0.5992

 Free energy of the ion-electron system (eV)
  ---------------------------------------------------
  alpha Z        PSCENC =         2.85898671
  Ewald energy   TEWEN  =      1464.39383728
  -Hartree energ DENC   =     -4112.21416645
  -exchange      EXHF   =         0.00000000
  -V(xc)+E(xc)   XCENC  =       137.76305369
  PAW double counting   =      3934.22408457    -3913.14057911
  entropy T*S    EENTRO =         0.00550610
  eigenvalues    EBANDS =      -727.94096067
  atomic energy  EATOM  =      3194.06076106
  Solvation  Ediel_sol  =         0.00000000
  ---------------------------------------------------
  free energy    TOTEN  =       -19.98947681 eV

  energy without entropy =      -19.99498291  energy(sigma->0) =      -19.99085334


--------------------------------------------------------------------------------------------------------




----------------------------------------- Iteration    1(  19)  ---------------------------------------


    POTLOK:  cpu time    0.0645: real time    0.0645
    SETDIJ:  cpu time    0.0036: real time    0.0036
    EDDIAG:  cpu time    0.0218: real time    0.0218
  RMM-DIIS:  cpu time    0.0684: real time    0.0684
    ORTHCH:  cpu time    0.0048: real time    0.0048
       DOS:  cpu time    0.0002: real time    0.0002
    CHARGE:  cpu time    0.0814: real time    0.0814
    MIXING:  cpu time    0.0035: real time    0.0035
    --------------------------------------------
      LOOP:  cpu time    0.2495: real time    0.2559

 eigenvalue-minimisations  :   112
 total energy-change (2. order) :-0.7437511E-04  (-0.1379967E-04)
 number of electron      40.9999984 magnetization       0.9911207
 augmentation part       -2.6051870 magnetization       0.0258484

 Broyden mixing:
  rms(total) = 0.84704E-03    rms(broyden)= 0.84697E-03
  rms(prec ) = 0.11585E-02
  weight for this iteration     100.00

 eigenvalues of (default mixing * dielectric matrix)
  average eigenvalue GAMMA=   1.4709
  4.7635  2.4788  2.4788  2.1275  1.5611  1.2054  0.9494  0.9494  0.8441  0.7955
  0.6203  0.6203  0.6149  0.5828

 Free energy of the ion-electron system (eV)
  ---------------------------------------------------
  alpha Z        PSCENC =         2.85898671
  Ewald energy   TEWEN  =      1464.39383728
  -Hartree energ DENC   =     -4112.20100903
  -exchange      EXHF   =         0.00000000
  -V(xc)+E(xc)   XCENC  =       137.76137024
  PAW double counting   =      3934.14927297    -3913.06087566
  entropy T*S    EENTRO =         0.00550610
  eigenvalues    EBANDS =      -727.95740086
  atomic energy  EATOM  =      3194.06076106
  Solvation  Ediel_sol  =         0.00000000
  ---------------------------------------------------
  free energy    TOTEN  =       -19.98955119 eV

  energy without entropy =      -19.99505729  energy(sigma->0) =      -19.99092771


--------------------------------------------------------------------------------------------------------




----------------------------------------- Iteration    1(  20)  ---------------------------------------


    POTLOK:  cpu time    0.0646: real time    0.0646
    SETDIJ:  cpu time    0.0036: real time    0.0036
    EDDIAG:  cpu time    0.0218: real time    0.0218
  RMM-DIIS:  cpu time    0.0656: real time    0.0656
    ORTHCH:  cpu time    0.0049: real time    0.0049
       DOS:  cpu time    0.0002: real time    0.0002
    CHARGE:  cpu time    0.0814: real time    0.0815
    MIXING:  cpu time    0.0038: real time    0.0038
    --------------------------------------------
      LOOP:  cpu time    0.2472: real time    0.2527

 eigenvalue-minimisations  :   108
 total energy-change (2. order) :-0.1206001E-02  (-0.6736418E-05)
 number of electron      40.9999984 magnetization       0.9958178
 augmentation part       -2.6052931 magnetization       0.0304873

 Broyden mixing:
  rms(total) = 0.49670E-03    rms(broyden)= 0.49668E-03
  rms(prec ) = 0.67723E-03
  weight for this iteration     100.00

 eigenvalues of (default mixing * dielectric matrix)
  average eigenvalue GAMMA=   1.5473
  5.5463  2.8396  2.5362  2.5362  1.5912  1.3502  1.0749  0.9352  0.9352  0.7533
  0.6619  0.6619  0.6053  0.6053  0.5768

 Free energy of the ion-electron system (eV)
  ---------------------------------------------------
  alpha Z        PSCENC =         2.85898671
  Ewald energy   TEWEN  =      1464.39383728
  -Hartree energ DENC   =     -4112.21068572
  -exchange      EXHF   =         0.00000000
  -V(xc)+E(xc)   XCENC  =       137.76024694
  PAW double counting   =      3934.19684234    -3913.10533855
  entropy T*S    EENTRO =         0.00550610
  eigenvalues    EBANDS =      -727.95091335
  atomic energy  EATOM  =      3194.06076106
  Solvation  Ediel_sol  =         0.00000000
  ---------------------------------------------------
  free energy    TOTEN  =       -19.99075719 eV

  energy without entropy =      -19.99626329  energy(sigma->0) =      -19.99213371


--------------------------------------------------------------------------------------------------------




----------------------------------------- Iteration    1(  21)  ---------------------------------------


    POTLOK:  cpu time    0.0644: real time    0.0644
    SETDIJ:  cpu time    0.0036: real time    0.0036
    EDDIAG:  cpu time    0.0217: real time    0.0217
  RMM-DIIS:  cpu time    0.0612: real time    0.0612
    ORTHCH:  cpu time    0.0048: real time    0.0048
       DOS:  cpu time    0.0002: real time    0.0002
    CHARGE:  cpu time    0.0814: real time    0.0814
    MIXING:  cpu time    0.0038: real time    0.0038
    --------------------------------------------
      LOOP:  cpu time    0.2423: real time    0.2487

 eigenvalue-minimisations  :   111
 total energy-change (2. order) :-0.1293881E-02  (-0.5946585E-05)
 number of electron      40.9999984 magnetization       0.9986843
 augmentation part       -2.6052695 magnetization       0.0333488

 Broyden mixing:
  rms(total) = 0.43665E-03    rms(broyden)= 0.43663E-03
  rms(prec ) = 0.52470E-03
  weight for this iteration     100.00

 eigenvalues of (default mixing * dielectric matrix)
  average eigenvalue GAMMA=   1.5989
  6.3220  3.2540  2.5222  2.5222  1.8084  1.3327  1.3327  0.9642  0.9642  0.7729
  0.7729  0.6262  0.6262  0.6084  0.6084  0.5454

 Free energy of the ion-electron system (eV)
  ---------------------------------------------------
  alpha Z        PSCENC =         2.85898671
  Ewald energy   TEWEN  =      1464.39383728
  -Hartree energ DENC   =     -4112.22442706
  -exchange      EXHF   =         0.00000000
  -V(xc)+E(xc)   XCENC  =       137.75974511
  PAW double counting   =      3934.26444533    -3913.17306008
  entropy T*S    EENTRO =         0.00550610
  eigenvalues    EBANDS =      -727.93784552
  atomic energy  EATOM  =      3194.06076106
  Solvation  Ediel_sol  =         0.00000000
  ---------------------------------------------------
  free energy    TOTEN  =       -19.99205107 eV

  energy without entropy =      -19.99755717  energy(sigma->0) =      -19.99342759


--------------------------------------------------------------------------------------------------------




----------------------------------------- Iteration    1(  22)  ---------------------------------------


    POTLOK:  cpu time    0.0644: real time    0.0644
    SETDIJ:  cpu time    0.0036: real time    0.0036
    EDDIAG:  cpu time    0.0218: real time    0.0218
  RMM-DIIS:  cpu time    0.0617: real time    0.0617
    ORTHCH:  cpu time    0.0048: real time    0.0048
       DOS:  cpu time    0.0002: real time    0.0002
    CHARGE:  cpu time    0.0811: real time    0.0811
    MIXING:  cpu time    0.0039: real time    0.0039
    --------------------------------------------
      LOOP:  cpu time    0.2428: real time    0.2491

 eigenvalue-minimisations  :   106
 total energy-change (2. order) :-0.4496296E-03  (-0.2517411E-05)
 number of electron      40.9999984 magnetization       0.9995644
 augmentation part       -2.6052983 magnetization       0.0342082

 Broyden mixing:
  rms(total) = 0.34491E-03    rms(broyden)= 0.34489E-03
  rms(prec ) = 0.40243E-03
  weight for this iteration     100.00

 eigenvalues of (default mixing * dielectric matrix)
  average eigenvalue GAMMA=   1.6256
  7.0711  3.6042  2.5281  2.5281  1.9888  1.3579  1.3579  0.9835  0.9835  0.8867
  0.7453  0.6603  0.6603  0.6117  0.6030  0.6030  0.4619

 Free energy of the ion-electron system (eV)
  ---------------------------------------------------
  alpha Z        PSCENC =         2.85898671
  Ewald energy   TEWEN  =      1464.39383728
  -Hartree energ DENC   =     -4112.23001200
  -exchange      EXHF   =         0.00000000
  -V(xc)+E(xc)   XCENC  =       137.75958785
  PAW double counting   =      3934.14470839    -3913.05243877
  entropy T*S    EENTRO =         0.00550610
  eigenvalues    EBANDS =      -727.93343732
  atomic energy  EATOM  =      3194.06076106
  Solvation  Ediel_sol  =         0.00000000
  ---------------------------------------------------
  free energy    TOTEN  =       -19.99250070 eV

  energy without entropy =      -19.99800680  energy(sigma->0) =      -19.99387722


--------------------------------------------------------------------------------------------------------




----------------------------------------- Iteration    1(  23)  ---------------------------------------


    POTLOK:  cpu time    0.0645: real time    0.0645
    SETDIJ:  cpu time    0.0036: real time    0.0036
    EDDIAG:  cpu time    0.0215: real time    0.0215
  RMM-DIIS:  cpu time    0.0493: real time    0.0493
    ORTHCH:  cpu time    0.0049: real time    0.0049
       DOS:  cpu time    0.0002: real time    0.0002
    CHARGE:  cpu time    0.0813: real time    0.0813
    MIXING:  cpu time    0.0042: real time    0.0042
    --------------------------------------------
      LOOP:  cpu time    0.2306: real time    0.2367

 eigenvalue-minimisations  :    84
 total energy-change (2. order) :-0.4873138E-04  (-0.5260052E-06)
 number of electron      40.9999984 magnetization       1.0000306
 augmentation part       -2.6053216 magnetization       0.0346700

 Broyden mixing:
  rms(total) = 0.22020E-03    rms(broyden)= 0.22019E-03
  rms(prec ) = 0.27066E-03
  weight for this iteration     100.00

 eigenvalues of (default mixing * dielectric matrix)
  average eigenvalue GAMMA=   1.6632
  7.8101  3.7890  2.8647  2.2703  2.2703  1.5413  1.3176  1.0203  1.0203  0.8756
  0.8756  0.7470  0.6389  0.6221  0.6221  0.5847  0.5847  0.4833

 Free energy of the ion-electron system (eV)
  ---------------------------------------------------
  alpha Z        PSCENC =         2.85898671
  Ewald energy   TEWEN  =      1464.39383728
  -Hartree energ DENC   =     -4112.23011492
  -exchange      EXHF   =         0.00000000
  -V(xc)+E(xc)   XCENC  =       137.75946965
  PAW double counting   =      3934.13374433    -3913.04071150
  entropy T*S    EENTRO =         0.00550610
  eigenvalues    EBANDS =      -727.93402814
  atomic energy  EATOM  =      3194.06076106
  Solvation  Ediel_sol  =         0.00000000
  ---------------------------------------------------
  free energy    TOTEN  =       -19.99254943 eV

  energy without entropy =      -19.99805553  energy(sigma->0) =      -19.99392595


--------------------------------------------------------------------------------------------------------




----------------------------------------- Iteration    1(  24)  ---------------------------------------


    POTLOK:  cpu time    0.0646: real time    0.0646
    SETDIJ:  cpu time    0.0036: real time    0.0036
    EDDIAG:  cpu time    0.0217: real time    0.0217
  RMM-DIIS:  cpu time    0.0453: real time    0.0453
    ORTHCH:  cpu time    0.0049: real time    0.0049
       DOS:  cpu time    0.0002: real time    0.0002
    CHARGE:  cpu time    0.0815: real time    0.0815
    MIXING:  cpu time    0.0043: real time    0.0043
    --------------------------------------------
      LOOP:  cpu time    0.2275: real time    0.2340

 eigenvalue-minimisations  :    78
 total energy-change (2. order) :-0.1788373E-04  (-0.2173238E-06)
 number of electron      40.9999984 magnetization       1.0003573
 augmentation part       -2.6053571 magnetization       0.0349893

 Broyden mixing:
  rms(total) = 0.10828E-03    rms(broyden)= 0.10827E-03
  rms(prec ) = 0.15122E-03
  weight for this iteration     100.00

 eigenvalues of (default mixing * dielectric matrix)
  average eigenvalue GAMMA=   1.6640
  8.1638  3.9688  2.9639  2.3587  2.3587  1.5318  1.3858  1.1292  1.0182  0.9198
  0.9198  0.7336  0.7336  0.6717  0.6033  0.6033  0.5604  0.5604  0.4321

 Free energy of the ion-electron system (eV)
  ---------------------------------------------------
  alpha Z        PSCENC =         2.85898671
  Ewald energy   TEWEN  =      1464.39383728
  -Hartree energ DENC   =     -4112.22715903
  -exchange      EXHF   =         0.00000000
  -V(xc)+E(xc)   XCENC  =       137.75924758
  PAW double counting   =      3934.07150142    -3912.97757409
  entropy T*S    EENTRO =         0.00550610
  eigenvalues    EBANDS =      -727.93767434
  atomic energy  EATOM  =      3194.06076106
  Solvation  Ediel_sol  =         0.00000000
  ---------------------------------------------------
  free energy    TOTEN  =       -19.99256731 eV

  energy without entropy =      -19.99807342  energy(sigma->0) =      -19.99394384


--------------------------------------------------------------------------------------------------------




----------------------------------------- Iteration    1(  25)  ---------------------------------------


    POTLOK:  cpu time    0.0644: real time    0.0644
    SETDIJ:  cpu time    0.0036: real time    0.0036
    EDDIAG:  cpu time    0.0218: real time    0.0218
  RMM-DIIS:  cpu time    0.0420: real time    0.0420
    ORTHCH:  cpu time    0.0048: real time    0.0048
       DOS:  cpu time    0.0002: real time    0.0002
    CHARGE:  cpu time    0.0811: real time    0.0811
    MIXING:  cpu time    0.0046: real time    0.0046
    --------------------------------------------
      LOOP:  cpu time    0.2238: real time    0.2302

 eigenvalue-minimisations  :    72
 total energy-change (2. order) :-0.1939003E-05  (-0.1084524E-06)
 number of electron      40.9999984 magnetization       1.0003984
 augmentation part       -2.6053695 magnetization       0.0350280

 Broyden mixing:
  rms(total) = 0.85285E-04    rms(broyden)= 0.85281E-04
  rms(prec ) = 0.11485E-03
  weight for this iteration     100.00

 eigenvalues of (default mixing * dielectric matrix)
  average eigenvalue GAMMA=   1.6543
  8.3502  4.0438  2.9619  2.4344  2.4344  1.5789  1.5789  1.0763  1.0763  0.9257
  0.9257  0.8984  0.7694  0.6795  0.6325  0.6325  0.5887  0.5887  0.4989  0.4109

 Free energy of the ion-electron system (eV)
  ---------------------------------------------------
  alpha Z        PSCENC =         2.85898671
  Ewald energy   TEWEN  =      1464.39383728
  -Hartree energ DENC   =     -4112.22607533
  -exchange      EXHF   =         0.00000000
  -V(xc)+E(xc)   XCENC  =       137.75918092
  PAW double counting   =      3934.07659332    -3912.98245925
  entropy T*S    EENTRO =         0.00550610
  eigenvalues    EBANDS =      -727.93890008
  atomic energy  EATOM  =      3194.06076106
  Solvation  Ediel_sol  =         0.00000000
  ---------------------------------------------------
  free energy    TOTEN  =       -19.99256925 eV

  energy without entropy =      -19.99807536  energy(sigma->0) =      -19.99394578


--------------------------------------------------------------------------------------------------------




----------------------------------------- Iteration    1(  26)  ---------------------------------------


    POTLOK:  cpu time    0.0648: real time    0.0648
    SETDIJ:  cpu time    0.0036: real time    0.0036
    EDDIAG:  cpu time    0.0218: real time    0.0218
  RMM-DIIS:  cpu time    0.0382: real time    0.0382
    ORTHCH:  cpu time    0.0048: real time    0.0048
       DOS:  cpu time    0.0002: real time    0.0002
    CHARGE:  cpu time    0.0817: real time    0.0817
    MIXING:  cpu time    0.0047: real time    0.0047
    --------------------------------------------
      LOOP:  cpu time    0.2212: real time    0.2275

 eigenvalue-minimisations  :    65
 total energy-change (2. order) :-0.9564403E-05  (-0.5138977E-07)
 number of electron      40.9999984 magnetization       1.0002947
 augmentation part       -2.6053674 magnetization       0.0349263

 Broyden mixing:
  rms(total) = 0.48816E-04    rms(broyden)= 0.48807E-04
  rms(prec ) = 0.75057E-04
  weight for this iteration     100.00

 eigenvalues of (default mixing * dielectric matrix)
  average eigenvalue GAMMA=   1.6368
  8.4329  4.1124  3.0343  2.4893  2.4893  1.6165  1.6165  1.1408  1.1408  0.9274
  0.9274  0.8742  0.7808  0.7808  0.7023  0.6150  0.6150  0.6035  0.6035  0.4628
  0.4077

 Free energy of the ion-electron system (eV)
  ---------------------------------------------------
  alpha Z        PSCENC =         2.85898671
  Ewald energy   TEWEN  =      1464.39383728
  -Hartree energ DENC   =     -4112.22488213
  -exchange      EXHF   =         0.00000000
  -V(xc)+E(xc)   XCENC  =       137.75914958
  PAW double counting   =      3934.07509809    -3912.98096143
  entropy T*S    EENTRO =         0.00550610
  eigenvalues    EBANDS =      -727.94007407
  atomic energy  EATOM  =      3194.06076106
  Solvation  Ediel_sol  =         0.00000000
  ---------------------------------------------------
  free energy    TOTEN  =       -19.99257882 eV

  energy without entropy =      -19.99808492  energy(sigma->0) =      -19.99395534


--------------------------------------------------------------------------------------------------------




----------------------------------------- Iteration    1(  27)  ---------------------------------------


    POTLOK:  cpu time    0.0648: real time    0.0648
    SETDIJ:  cpu time    0.0036: real time    0.0036
    EDDIAG:  cpu time    0.0218: real time    0.0218
  RMM-DIIS:  cpu time    0.0377: real time    0.0378
    ORTHCH:  cpu time    0.0048: real time    0.0048
       DOS:  cpu time    0.0002: real time    0.0002
    CHARGE:  cpu time    0.0809: real time    0.0809
    MIXING:  cpu time    0.0048: real time    0.0048
    --------------------------------------------
      LOOP:  cpu time    0.2207: real time    0.2261

 eigenvalue-minimisations  :    61
 total energy-change (2. order) :-0.1756081E-04  (-0.3158784E-07)
 number of electron      40.9999984 magnetization       1.0001734
 augmentation part       -2.6053728 magnetization       0.0348014

 Broyden mixing:
  rms(total) = 0.55958E-04    rms(broyden)= 0.55954E-04
  rms(prec ) = 0.65730E-04
  weight for this iteration     100.00

 eigenvalues of (default mixing * dielectric matrix)
  average eigenvalue GAMMA=   1.6409
  8.5271  4.2068  3.1833  2.4914  2.4914  1.8117  1.8117  1.3107  1.2142  0.9193
  0.9193  0.9512  0.9512  0.7579  0.6484  0.6484  0.6379  0.5942  0.5942  0.5843
  0.4509  0.3942

 Free energy of the ion-electron system (eV)
  ---------------------------------------------------
  alpha Z        PSCENC =         2.85898671
  Ewald energy   TEWEN  =      1464.39383728
  -Hartree energ DENC   =     -4112.22370138
  -exchange      EXHF   =         0.00000000
  -V(xc)+E(xc)   XCENC  =       137.75911616
  PAW double counting   =      3934.06730207    -3912.97299411
  entropy T*S    EENTRO =         0.00550610
  eigenvalues    EBANDS =      -727.94141026
  atomic energy  EATOM  =      3194.06076106
  Solvation  Ediel_sol  =         0.00000000
[...]
    --------------------------------------------
      LOOP:  cpu time    0.2429: real time    0.2493

 eigenvalue-minimisations  :   118
 total energy-change (2. order) :-0.6100606E-05  (-0.7500464E-05)
 number of electron      41.0000001 magnetization       0.9944436
 augmentation part       -2.5037272 magnetization       0.1001970

 Broyden mixing:
  rms(total) = 0.63672E-03    rms(broyden)= 0.63655E-03
  rms(prec ) = 0.66403E-03
  weight for this iteration     100.00

 eigenvalues of (default mixing * dielectric matrix)
  average eigenvalue GAMMA=   0.8671
  0.8671

 Free energy of the ion-electron system (eV)
  ---------------------------------------------------
  alpha Z        PSCENC =         2.85898671
  Ewald energy   TEWEN  =      1205.31041202
  -Hartree energ DENC   =     -3853.17875441
  -exchange      EXHF   =         0.00000000
  -V(xc)+E(xc)   XCENC  =       136.05710453
  PAW double counting   =      3335.42313973    -3315.81152683
  entropy T*S    EENTRO =        -0.00108167
  eigenvalues    EBANDS =      -728.06331557
  atomic energy  EATOM  =      3194.06076106
  Solvation  Ediel_sol  =         0.00000000
  ---------------------------------------------------
  free energy    TOTEN  =       -23.34427443 eV

  energy without entropy =      -23.34319276  energy(sigma->0) =      -23.34400401


--------------------------------------------------------------------------------------------------------




----------------------------------------- Iteration   75(   3)  ---------------------------------------


    POTLOK:  cpu time    0.0646: real time    0.0646
    SETDIJ:  cpu time    0.0036: real time    0.0036
    EDDIAG:  cpu time    0.0217: real time    0.0217
  RMM-DIIS:  cpu time    0.0572: real time    0.0572
    ORTHCH:  cpu time    0.0048: real time    0.0048
       DOS:  cpu time    0.0002: real time    0.0002
    --------------------------------------------
      LOOP:  cpu time    0.1533: real time    0.1596

 eigenvalue-minimisations  :    93
 total energy-change (2. order) :-0.5022257E-06  (-0.4471081E-06)
 number of electron      41.0000001 magnetization       0.9944436
 augmentation part       -2.5037272 magnetization       0.1001970

 Free energy of the ion-electron system (eV)
  ---------------------------------------------------
  alpha Z        PSCENC =         2.85898671
  Ewald energy   TEWEN  =      1205.31041202
  -Hartree energ DENC   =     -3853.18171826
  -exchange      EXHF   =         0.00000000
  -V(xc)+E(xc)   XCENC  =       136.05718311
  PAW double counting   =      3335.51892827    -3315.90679577
  entropy T*S    EENTRO =        -0.00107775
  eigenvalues    EBANDS =      -728.06095432
  atomic energy  EATOM  =      3194.06076106
  Solvation  Ediel_sol  =         0.00000000
  ---------------------------------------------------
  free energy    TOTEN  =       -23.34427493 eV

  energy without entropy =      -23.34319718  energy(sigma->0) =      -23.34400549


--------------------------------------------------------------------------------------------------------




 average (electrostatic) potential at core
  the test charge radii are     1.0703  0.9406
  (the norm of the test charge is              1.0000)
       1 -94.9993       2-101.0920       3-101.0920       4-101.0897       5-101.0909
 
 
 
 E-fermi :  -4.3469     XC(G=0):  -0.6316     alpha+bet : -0.3259


 spin component 1

 k-point     1 :       0.0000    0.0000    0.0000
  band No.  band energies     occupation 
      1     -61.3935      1.00000
      2     -37.6266      1.00000
      3     -37.6255      1.00000
      4     -37.3641      1.00000
      5     -20.6486      1.00000
      6     -20.4230      1.00000
      7     -20.3837      1.00000
      8     -20.3831      1.00000
      9      -9.8944      1.00000
     10      -9.8717      1.00000
     11      -9.6115      1.00000
     12      -9.6107      1.00000
     13      -9.3987      1.00000
     14      -9.1396      1.00000
     15      -8.6866      1.00000
     16      -8.6838      1.00000
     17      -8.5671      1.00000
     18      -8.0568      1.00000
     19      -8.0557      1.00000
     20      -8.0052      1.00000
     21      -4.4520      0.95271
     22      -4.2407      0.04452
     23      -3.1872      0.00000
     24      -3.1807      0.00000
     25      -2.9287      0.00000
     26      -0.7476      0.00000
     27       0.3591      0.00000
     28       0.3729      0.00000

 spin component 2

 k-point     1 :       0.0000    0.0000    0.0000
  band No.  band energies     occupation 
      1     -60.8978      1.00000
      2     -37.2222      1.00000
      3     -37.2166      1.00000
      4     -36.5138      1.00000
      5     -20.6205      1.00000
      6     -20.3900      1.00000
      7     -20.3573      1.00000
      8     -20.3561      1.00000
      9      -9.8056      1.00000
     10      -9.7865      1.00000
     11      -9.5370      1.00000
     12      -9.5361      1.00000
     13      -9.3126      1.00000
     14      -8.8407      1.00000
     15      -8.6586      1.00000
     16      -8.6557      1.00000
     17      -8.4751      1.00000
     18      -8.0086      1.00000
     19      -8.0007      1.00000
     20      -7.9985      1.00000
     21      -3.8673      0.00277
     22      -3.2505      0.00000
     23      -2.9581      0.00000
     24      -2.9523      0.00000
     25      -2.6399      0.00000
     26      -0.6967      0.00000
     27       0.3930      0.00000
     28       0.3979      0.00000


--------------------------------------------------------------------------------------------------------


 soft charge-density along one line, spin component           1
         0         1         2         3         4         5         6         7         8         9
 total charge-density along one line
 
 soft charge-density along one line, spin component           2
         0         1         2         3         4         5         6         7         8         9
 total charge-density along one line
 
 pseudopotential strength for first ion, spin component:           1
  6.780 -26.580  -0.000  -0.000   0.000   0.000   0.000  -0.000
-26.580  14.901  -0.000  -0.000   0.000  -0.000  -0.000  -0.000
 -0.000  -0.000 -13.751   0.013   0.029  11.029  -0.013  -0.029
 -0.000  -0.000   0.013 -13.751   0.029  -0.013  11.029  -0.029
  0.000   0.000   0.029   0.029 -13.701  -0.029  -0.029  10.980
  0.000  -0.000  11.029  -0.013  -0.029   4.713   0.009   0.020
  0.000  -0.000  -0.013  11.029  -0.029   0.009   4.713   0.020
 -0.000  -0.000  -0.029  -0.029  10.980   0.020   0.020   4.747
  0.020   0.008   0.003  -0.004   0.004  -0.001   0.001  -0.001
  0.009   0.004  -0.005  -0.005  -0.004   0.001   0.001   0.001
 -0.010  -0.004  -0.004   0.001   0.003   0.001  -0.000  -0.000
  0.020   0.008  -0.004   0.003   0.004   0.001  -0.001  -0.001
  0.018   0.007   0.001   0.004  -0.005  -0.000  -0.001   0.001
  0.026   0.010   0.004  -0.005   0.005  -0.001   0.001  -0.001
  0.012   0.004  -0.006  -0.006  -0.005   0.001   0.001   0.001
 -0.013  -0.005  -0.006   0.002   0.003   0.001  -0.000  -0.001
  0.026   0.010  -0.005   0.004   0.005   0.001  -0.001  -0.001
  0.023   0.008   0.001   0.005  -0.006  -0.000  -0.001   0.001
 pseudopotential strength for first ion, spin component:           2
  6.740 -26.417  -0.000  -0.000   0.000   0.000   0.000  -0.000
-26.417  14.768   0.000   0.000   0.000  -0.000  -0.000  -0.000
 -0.000   0.000 -13.668   0.023   0.049  10.923  -0.028  -0.059
 -0.000   0.000   0.023 -13.668   0.049  -0.028  10.923  -0.059
  0.000   0.000   0.049   0.049 -13.583  -0.059  -0.059  10.820
  0.000  -0.000  10.923  -0.028  -0.059   4.759   0.016   0.034
  0.000  -0.000  -0.028  10.923  -0.059   0.016   4.759   0.034
 -0.000  -0.000  -0.059  -0.059  10.820   0.034   0.034   4.818
  0.032   0.019   0.003  -0.004   0.004  -0.001   0.001  -0.001
  0.015   0.009  -0.005  -0.005  -0.004   0.001   0.001   0.001
 -0.016  -0.010  -0.005   0.001   0.003   0.001  -0.000  -0.000
  0.032   0.019  -0.004   0.003   0.004   0.001  -0.001  -0.001
  0.028   0.017   0.001   0.005  -0.005  -0.000  -0.001   0.001
  0.043   0.024   0.004  -0.005   0.005  -0.001   0.001  -0.001
  0.020   0.011  -0.007  -0.007  -0.005   0.002   0.002   0.001
 -0.022  -0.012  -0.006   0.002   0.004   0.001  -0.000  -0.001
  0.043   0.024  -0.005   0.004   0.005   0.001  -0.001  -0.001
  0.037   0.021   0.001   0.006  -0.006  -0.000  -0.001   0.001
 total augmentation occupancy for first ion, spin component:           1
  1.996  -0.049  -0.000  -0.000  -0.000  -0.000  -0.000  -0.000   0.040   0.019  -0.020   0.040   0.035  -0.036  -0.017   0.018
 -0.049   1.216  -0.000  -0.000  -0.000   0.000   0.000   0.001  -0.116  -0.055   0.059  -0.116  -0.103   0.109   0.051  -0.056
 -0.000  -0.000   2.000  -0.000  -0.001  -0.042   0.001   0.001   0.017  -0.026  -0.024  -0.022   0.006  -0.002   0.002   0.003
 -0.000  -0.000  -0.000   2.000  -0.001   0.001  -0.042   0.001  -0.022  -0.026   0.007   0.017   0.024   0.003   0.002  -0.001
 -0.000  -0.000  -0.001  -0.001   1.999   0.001   0.001  -0.039   0.019  -0.020   0.015   0.019  -0.025  -0.002   0.001  -0.002
 -0.000   0.000  -0.042   0.001   0.001   0.070  -0.002  -0.005  -0.103   0.165   0.148   0.135  -0.038   0.052  -0.084  -0.075
 -0.000   0.000   0.001  -0.042   0.001  -0.002   0.070  -0.005   0.135   0.165  -0.041  -0.103  -0.147  -0.068  -0.084   0.021
 -0.000   0.001   0.001   0.001  -0.039  -0.005  -0.005   0.061  -0.117   0.121  -0.090  -0.117   0.156   0.059  -0.062   0.046
  0.040  -0.116   0.017  -0.022   0.019  -0.103   0.135  -0.117   2.322  -0.347  -0.156  -0.136  -0.616  -0.985   0.219   0.056
  0.019  -0.055  -0.026  -0.026  -0.020   0.165   0.165   0.121  -0.347   3.234   0.025  -0.347  -0.043   0.219  -1.537  -0.032
 -0.020   0.059  -0.024   0.007   0.015   0.148  -0.041  -0.090  -0.156   0.025   2.057   0.611  -0.266   0.056  -0.032  -0.888
  0.040  -0.116  -0.022   0.017   0.019   0.135  -0.103  -0.117  -0.136  -0.347   0.611   2.322  -0.173   0.147   0.219  -0.378
  0.035  -0.103   0.006   0.024  -0.025  -0.038  -0.147   0.156  -0.616  -0.043  -0.266  -0.173   2.364   0.404   0.056   0.120
 -0.036   0.109  -0.002   0.003  -0.002   0.052  -0.068   0.059  -0.985   0.219   0.056   0.147   0.404   0.552  -0.078  -0.073
 -0.017   0.051   0.002   0.002   0.001  -0.084  -0.084  -0.062   0.219  -1.537  -0.032   0.219   0.056  -0.078   0.779  -0.002
  0.018  -0.056   0.003  -0.001  -0.002  -0.075   0.021   0.046   0.056  -0.032  -0.888  -0.378   0.120  -0.073  -0.002   0.435
 -0.036   0.109   0.003  -0.002  -0.002  -0.068   0.052   0.059   0.147   0.219  -0.378  -0.985   0.154   0.008  -0.078   0.159
 -0.031   0.096  -0.001  -0.003   0.003   0.019   0.074  -0.079   0.404   0.056   0.120   0.154  -1.027  -0.142   0.004  -0.102
 total augmentation occupancy for first ion, spin component:           2
  0.002   0.010  -0.000  -0.000  -0.000  -0.000  -0.000  -0.000   0.007   0.003  -0.003   0.007   0.006  -0.001  -0.001   0.001
  0.010   0.048  -0.000  -0.000  -0.000  -0.000  -0.000  -0.000   0.052   0.024  -0.026   0.052   0.045   0.012   0.005  -0.006
 -0.000  -0.000   0.002   0.000   0.001   0.004   0.001   0.002  -0.000   0.000   0.000  -0.000   0.000   0.000  -0.000  -0.000
 -0.000  -0.000   0.000   0.002   0.001   0.001   0.004   0.002  -0.000   0.000  -0.000  -0.000   0.000  -0.000  -0.000   0.000
 -0.000  -0.000   0.001   0.001   0.003   0.002   0.002   0.006  -0.000   0.001   0.000  -0.000  -0.000   0.000  -0.000  -0.000
 -0.000  -0.000   0.004   0.001   0.002   0.001   0.000   0.000  -0.000   0.001   0.001   0.001  -0.000  -0.000   0.000  -0.000
 -0.000  -0.000   0.001   0.004   0.002   0.000   0.001   0.000   0.001   0.001  -0.000  -0.000  -0.001  -0.000   0.000   0.000
 -0.000  -0.000   0.002   0.002   0.006   0.000   0.000   0.001  -0.000  -0.000  -0.000  -0.000   0.001  -0.000   0.001   0.000
  0.007   0.052  -0.000  -0.000  -0.000  -0.000   0.001  -0.000   0.145   0.046  -0.046   0.084   0.075   0.031   0.016  -0.017
  0.003   0.024   0.000   0.000   0.001   0.001   0.001  -0.000   0.046   0.060  -0.016   0.046   0.028   0.016   0.003  -0.013
 -0.003  -0.026   0.000  -0.000   0.000   0.001  -0.000  -0.000  -0.046  -0.016   0.081  -0.042  -0.038  -0.017  -0.013   0.001
  0.007   0.052  -0.000  -0.000  -0.000   0.001  -0.000  -0.000   0.084   0.046  -0.042   0.145   0.078   0.047   0.016  -0.029
  0.006   0.045   0.000   0.000  -0.000  -0.000  -0.001   0.001   0.075   0.028  -0.038   0.078   0.125   0.043   0.023  -0.015
 -0.001   0.012   0.000  -0.000   0.000  -0.000  -0.000  -0.000   0.031   0.016  -0.017   0.047   0.043   0.064   0.030  -0.029
 -0.001   0.005  -0.000  -0.000  -0.000   0.000   0.000   0.001   0.016   0.003  -0.013   0.016   0.023   0.030   0.009  -0.011
  0.001  -0.006  -0.000   0.000  -0.000  -0.000   0.000   0.000  -0.017  -0.013   0.001  -0.029  -0.015  -0.029  -0.011   0.023
 -0.001   0.012  -0.000   0.000   0.000  -0.000  -0.000  -0.000   0.047   0.016  -0.029   0.031   0.036   0.056   0.030  -0.030
 -0.001   0.010   0.000   0.000   0.000   0.000   0.000  -0.000   0.043   0.023  -0.015   0.036   0.018   0.051   0.020  -0.024


------------------------ aborting loop because EDIFF is reached ----------------------------------------


    CHARGE:  cpu time    0.0880: real time    0.0880
    FORLOC:  cpu time    0.0018: real time    0.0018
    FORNL :  cpu time    0.0194: real time    0.0194
    STRESS:  cpu time    0.0557: real time    0.0557
    FORCOR:  cpu time    0.0642: real time    0.0642
    FORHAR:  cpu time    0.0085: real time    0.0085
    MIXING:  cpu time    0.0017: real time    0.0017
    OFIELD:  cpu time    0.0000: real time    0.0000

  FORCE on cell =-STRESS in cart. coord.  units (eV):
  Direction    XX          YY          ZZ          XY          YZ          ZX
  --------------------------------------------------------------------------------------
  Alpha Z     2.85899     2.85899     2.85899
  Ewald     288.48117   458.41412   458.41412   -87.41240   -42.00750   -87.41240
  Hartree  1205.91403  1323.64473  1323.64473   -58.19852   -28.02207   -58.19852
  E(xc)    -162.99081  -162.86210  -162.86210    -0.07141    -0.03487    -0.07141
  Local   -2315.77189 -2591.80555 -2591.80555   138.94477    66.90735   138.94477
  n-local   321.65467   322.92853   322.92853    -0.72158    -0.32906    -0.72158
  augment   -58.41594   -59.03623   -59.03623     0.35898     0.16581     0.35898
  Kinetic   718.15761   705.72988   705.72987     7.09884     3.33358     7.09883
  Fock        0.00000     0.00000     0.00000     0.00000     0.00000     0.00000
  -------------------------------------------------------------------------------------
  Total      -0.11219    -0.12763    -0.12763    -0.00133     0.01323    -0.00133
  in kB      -0.05326    -0.06059    -0.06059    -0.00063     0.00628    -0.00063
  external pressure =       -0.06 kB  Pullay stress =        0.00 kB


 VOLUME and BASIS-vectors are now :
 -----------------------------------------------------------------------------
  energy-cutoff  :      450.00
  volume of cell :     3375.00
      direct lattice vectors                 reciprocal lattice vectors
    15.000000000  0.000000000  0.000000000     0.066666667  0.000000000  0.000000000
     0.000000000 15.000000000  0.000000000     0.000000000  0.066666667  0.000000000
     0.000000000  0.000000000 15.000000000     0.000000000  0.000000000  0.066666667

  length of vectors
    15.000000000 15.000000000 15.000000000     0.066666667  0.066666667  0.066666667


 FORCES acting on ions
    electron-ion (+dipol)            ewald-force                    non-local-force                 convergence-correction
 -----------------------------------------------------------------------------------------------
   0.174E+01 0.274E+00 0.274E+00   -.169E+01 -.269E+00 -.269E+00   -.521E-01 -.295E-02 -.295E-02   0.505E-02 -.328E-02 -.328E-02
   0.163E+03 0.293E+03 -.144E+03   -.164E+03 -.294E+03 0.144E+03   0.389E+00 0.880E+00 -.517E+00   -.315E-03 -.338E-02 0.282E-02
   0.163E+03 -.144E+03 0.293E+03   -.164E+03 0.144E+03 -.294E+03   0.389E+00 -.517E+00 0.880E+00   -.315E-03 0.282E-02 -.338E-02
   -.332E+03 0.109E+03 0.109E+03   0.332E+03 -.109E+03 -.109E+03   -.945E+00 0.407E+00 0.407E+00   -.477E-02 0.173E-02 0.173E-02
   0.335E+01 -.258E+03 -.258E+03   -.348E+01 0.259E+03 0.259E+03   0.134E+00 -.767E+00 -.767E+00   0.643E-03 0.427E-02 0.427E-02
 -----------------------------------------------------------------------------------------------
   0.906E-01 0.527E-02 0.527E-02   0.178E-13 -.568E-13 -.568E-13   -.856E-01 -.296E-03 -.296E-03   0.298E-03 0.216E-02 0.216E-02
 
 
 POSITION                                       TOTAL-FORCE (eV/Angst)
 -----------------------------------------------------------------------------------
      7.94650      8.39969      8.39969         0.006886     -0.002631     -0.002631
      6.95604      6.56718      9.32065        -0.001628      0.001053     -0.001453
      6.95604      9.32065      6.56718        -0.001628     -0.001453      0.001053
      9.99940      7.70296      7.70296        -0.002010      0.000254      0.000254
      7.89202     10.00952     10.00952        -0.001620      0.002777      0.002777
 -----------------------------------------------------------------------------------
    total drift:                                0.005224      0.007132      0.007128


--------------------------------------------------------------------------------------------------------



  FREE ENERGIE OF THE ION-ELECTRON SYSTEM (eV)
  ---------------------------------------------------
  free  energy   TOTEN  =       -23.34427493 eV

  energy  without entropy=      -23.34319718  energy(sigma->0) =      -23.34400549
 
 d Force = 0.3602928E-05[-0.267E-05, 0.988E-05]  d Energy = 0.5176448E-05-0.157E-05
 d Force =-0.1140966E+00[-0.114E+00,-0.114E+00]  d Ewald  =-0.1140966E+00-0.178E-08


--------------------------------------------------------------------------------------------------------


    POTLOK:  cpu time    0.0694: real time    0.0694


--------------------------------------------------------------------------------------------------------


 Conjugate gradient step on ions:
 trial-energy change:   -0.000005  1 .order   -0.000004   -0.000010    0.000003
  (g-gl).g = 0.152E-05      g.g   = 0.263E-05  gl.gl    = 0.166E-04
 g(Force)  = 0.263E-05   g(Stress)= 0.000E+00 ortho     =-0.196E-06
 gamma     =   0.09169
 trial     =   3.78099
 opt step  =   2.97640  (harmonic =   2.97640) maximal distance =0.00020113
 next E    =   -23.344274   (d E  =  -0.00000)


--------------------------------------------------------------------------------------------------------


  
 reached required accuracy - stopping structural energy minimisation
     LOOP+:  cpu time    0.9746: real time    0.9942
    4ORBIT:  cpu time    0.0000: real time    0.0000

 total amount of memory used by VASP on root node    39653. kBytes
========================================================================

   base      :      30000. kBytes
   nonlr-proj:        273. kBytes
   fftplans  :       2467. kBytes
   grid      :       6195. kBytes
   one-center:         31. kBytes
   wavefun   :        687. kBytes
 
  
  
 General timing and accounting informations for this job:
 ========================================================
  
                  Total CPU time used (sec):      275.581
                            User time (sec):      272.368
                          System time (sec):        3.213
                         Elapsed time (sec):      282.598
  
                   Maximum memory used (kb):      136376.
                   Average memory used (kb):           0.
  
                          Minor page faults:        71431
                          Major page faults:            0
                 Voluntary context switches:        17584
