 vasp.5.4.4.18Apr17-6-g9f103f2a35 (build Jan 21 2021 13:12:21) complex          
  
 executed on             LinuxIFC date 2021.12.21  00:02:42
 running on   16 total cores
 distrk:  each k-point on   16 cores,    1 groups
 distr:  one band on NCORES_PER_BAND=   1 cores,   16 groups


--------------------------------------------------------------------------------------------------------


 INCAR:
 POTCAR:    PAW_PBE W 08Apr2002                   

 ----------------------------------------------------------------------------- 
|                                                                             |
|           W    W    AA    RRRRR   N    N  II  N    N   GGGG   !!!           |
|           W    W   A  A   R    R  NN   N  II  NN   N  G    G  !!!           |
|           W    W  A    A  R    R  N N  N  II  N N  N  G       !!!           |
|           W WW W  AAAAAA  RRRRR   N  N N  II  N  N N  G  GGG   !            |
|           WW  WW  A    A  R   R   N   NN  II  N   NN  G    G                |
|           W    W  A    A  R    R  N    N  II  N    N   GGGG   !!!           |
|                                                                             |
|      For optimal performance we recommend to set                            |
|        NCORE= 4 - approx SQRT( number of cores)                             |
|      NCORE specifies how many cores store one orbital (NPAR=cpu/NCORE).     |
|      This setting can  greatly improve the performance of VASP for DFT.     |
|      The default,   NCORE=1            might be grossly inefficient         |
|      on modern multi-core architectures or massively parallel machines.     |
|      Do your own testing !!!!                                               |
|      Unfortunately you need to use the default for GW and RPA calculations. |
|      (for HF NCORE is supported but not extensively tested yet)             |
|                                                                             |
 ----------------------------------------------------------------------------- 

 POTCAR:    PAW_PBE W 08Apr2002                   
   VRHFIN =W : 6s5d                                                             
   LEXCH  = PE                                                                  
   EATOM  =   204.6103 eV,   15.0384 Ry                                         
                                                                                
   TITEL  = PAW_PBE W 08Apr2002                                                 
   LULTRA =        F    use ultrasoft PP ?                                      
   IUNSCR =        1    unscreen: 0-lin 1-nonlin 2-no                           
   RPACOR =    2.330    partial core radius                                     
   POMASS =  183.850; ZVAL   =    6.000    mass and valenz                      
   RCORE  =    2.750    outmost cutoff radius                                   
   RWIGS  =    2.750; RWIGS  =    1.455    wigner-seitz radius (au A)           
   ENMAX  =  223.057; ENMIN  =  167.293 eV                                      
   RCLOC  =    2.147    cutoff for local pot                                    
   LCOR   =        T    correct aug charges                                     
   LPAW   =        T    paw PP                                                  
   EAUG   =  373.438                                                            
   DEXC   =    0.000                                                            
   RMAX   =    2.801    core radius for proj-oper                               
   RAUG   =    1.300    factor for augmentation sphere                          
   RDEP   =    2.886    radius for radial grids                                 
   RDEPT  =    2.230    core radius for aug-charge                              
                                                                                
   Atomic configuration                                                         
   16 entries                                                                   
     n  l   j            E        occ.                                          
     1  0  0.50    -69465.5836   2.0000                                         
     2  0  0.50    -11986.2642   2.0000                                         
     2  1  1.50    -10479.8616   6.0000                                         
     3  0  0.50     -2759.0758   2.0000                                         
     3  1  1.50     -2313.1857   6.0000                                         
     3  2  2.50     -1801.1185  10.0000                                         
     4  0  0.50      -567.6791   2.0000                                         
     4  1  1.50      -421.4694   6.0000                                         
     4  2  2.50      -236.3473  10.0000                                         
     4  3  3.50       -31.2666  14.0000                                         
     5  0  0.50       -77.1085   2.0000                                         
     5  1  1.50       -41.3856   6.0000                                         
     5  2  2.50        -3.3185   5.0000                                         
     6  0  0.50        -5.1438   1.0000                                         
     6  1  0.50        -3.8096   0.0000                                         
     5  3  2.50        -1.3606   0.0000                                         
   Description                                                                  
     l       E           TYP  RCUT    TYP  RCUT                                 
     2     -3.3185288     23  2.500                                             
     2     -1.5965414     23  2.500                                             
     0     -5.1438054     23  2.500                                             
     0      4.9117504     23  2.500                                             
     1      2.7211652     23  2.750                                             
     1     27.2116520     23  2.750                                             
  local pseudopotential read in
  partial core-charges read in
  partial kinetic energy density read in
  atomic valenz-charges read in
  non local Contribution for L=           2  read in
    real space projection operators read in
  non local Contribution for L=           2  read in
    real space projection operators read in
  non local Contribution for L=           0  read in
    real space projection operators read in
  non local Contribution for L=           0  read in
    real space projection operators read in
  non local Contribution for L=           1  read in
    real space projection operators read in
  non local Contribution for L=           1  read in
    real space projection operators read in
    PAW grid and wavefunctions read in
 
   number of l-projection  operators is LMAX  =           6
   number of lm-projection operators is LMMAX =          18
 
  PAW_PBE W 08Apr2002                   :
 energy of atom  1       EATOM= -204.6103
 kinetic energy error for atom=    0.0299 (will be added to EATOM!!)
 
 
 POSCAR: O dimer in a box                        
  positions in direct lattice
  velocities in cartesian coordinates
 exchange correlation table for  LEXCH =        8
   RHO(1)=    0.500       N(1)  =     2000
   RHO(2)=  100.500       N(2)  =     4000
 


--------------------------------------------------------------------------------------------------------


 ion  position               nearest neighbor table
   1  0.500  0.500  0.500-
 
  LATTYP: Found a simple cubic cell.
 ALAT       =    15.0000000000
  
  Lattice vectors:
  
 A1 = (  15.0000000000,   0.0000000000,   0.0000000000)
 A2 = (   0.0000000000,  15.0000000000,   0.0000000000)
 A3 = (   0.0000000000,   0.0000000000,  15.0000000000)


Analysis of symmetry for initial positions (statically):
=====================================================================
 Subroutine PRICEL returns:
 Original cell was already a primitive cell.
 

 Routine SETGRP: Setting up the symmetry group for a 
 simple cubic supercell.


 Subroutine GETGRP returns: Found 48 space group operations
 (whereof 48 operations were pure point group operations)
 out of a pool of 48 trial point group operations.


The static configuration has the point symmetry O_h .


Analysis of symmetry for dynamics (positions and initial velocities):
=====================================================================
 Subroutine PRICEL returns:
 Original cell was already a primitive cell.
 

 Routine SETGRP: Setting up the symmetry group for a 
 simple cubic supercell.


 Subroutine GETGRP returns: Found 48 space group operations
 (whereof 48 operations were pure point group operations)
 out of a pool of 48 trial point group operations.


The dynamic configuration has the point symmetry O_h .


Analysis of constrained symmetry for selective dynamics:
=====================================================================
 Subroutine PRICEL returns:
 Original cell was already a primitive cell.
 

 Routine SETGRP: Setting up the symmetry group for a 
 simple cubic supercell.


 Subroutine GETGRP returns: Found 48 space group operations
 (whereof 48 operations were pure point group operations)
 out of a pool of 48 trial point group operations.


The constrained configuration has the point symmetry O_h .


Analysis of structural, dynamic, and magnetic symmetry:
=====================================================================
 Subroutine PRICEL returns:
 Original cell was already a primitive cell.
 

 Routine SETGRP: Setting up the symmetry group for a 
 simple cubic supercell.


 Subroutine GETGRP returns: Found 48 space group operations
 (whereof 48 operations were pure point group operations)
 out of a pool of 48 trial point group operations.


The magnetic configuration has the point symmetry O_h .


 Subroutine INISYM returns: Found 48 space group operations
 (whereof 48 operations are pure point group operations),
 and found     1 'primitive' translations

 
 
 KPOINTS: Gamma-point only                        

Automatic generation of k-mesh.
Space group operators:
 irot       det(A)        alpha          n_x          n_y          n_z        tau_x        tau_y        tau_z
    1     1.000000     0.000000     1.000000     0.000000     0.000000     0.000000     0.000000     0.000000
    2    -1.000000     0.000000     1.000000     0.000000     0.000000     0.000000     0.000000     0.000000
    3     1.000000   120.000000    -0.577350    -0.577350    -0.577350     0.000000     0.000000     0.000000
    4    -1.000000   120.000000    -0.577350    -0.577350    -0.577350     0.000000     0.000000     0.000000
    5     1.000000   120.000000     0.577350     0.577350     0.577350     0.000000     0.000000     0.000000
    6    -1.000000   120.000000     0.577350     0.577350     0.577350     0.000000     0.000000     0.000000
    7     1.000000    90.000000     0.000000     0.000000    -1.000000     0.000000     0.000000     0.000000
    8    -1.000000    90.000000     0.000000     0.000000    -1.000000     0.000000     0.000000     0.000000
    9     1.000000   180.000000     0.000000     0.707107     0.707107     0.000000     0.000000     0.000000
   10    -1.000000   180.000000     0.000000     0.707107     0.707107     0.000000     0.000000     0.000000
   11     1.000000    90.000000     0.000000     1.000000     0.000000     0.000000     0.000000     0.000000
   12    -1.000000    90.000000     0.000000     1.000000     0.000000     0.000000     0.000000     0.000000
   13     1.000000   180.000000     0.000000     0.000000     1.000000     0.000000     0.000000     0.000000
   14    -1.000000   180.000000     0.000000     0.000000     1.000000     0.000000     0.000000     0.000000
   15     1.000000   120.000000    -0.577350     0.577350     0.577350     0.000000     0.000000     0.000000
   16    -1.000000   120.000000    -0.577350     0.577350     0.577350     0.000000     0.000000     0.000000
   17     1.000000   120.000000    -0.577350     0.577350    -0.577350     0.000000     0.000000     0.000000
   18    -1.000000   120.000000    -0.577350     0.577350    -0.577350     0.000000     0.000000     0.000000
   19     1.000000    90.000000     0.000000     0.000000     1.000000     0.000000     0.000000     0.000000
   20    -1.000000    90.000000     0.000000     0.000000     1.000000     0.000000     0.000000     0.000000
   21     1.000000    90.000000    -1.000000     0.000000     0.000000     0.000000     0.000000     0.000000
   22    -1.000000    90.000000    -1.000000     0.000000     0.000000     0.000000     0.000000     0.000000
   23     1.000000   180.000000     0.707107     0.000000     0.707107     0.000000     0.000000     0.000000
   24    -1.000000   180.000000     0.707107     0.000000     0.707107     0.000000     0.000000     0.000000
   25     1.000000   120.000000     0.577350    -0.577350     0.577350     0.000000     0.000000     0.000000
   26    -1.000000   120.000000     0.577350    -0.577350     0.577350     0.000000     0.000000     0.000000
   27     1.000000   120.000000    -0.577350    -0.577350     0.577350     0.000000     0.000000     0.000000
   28    -1.000000   120.000000    -0.577350    -0.577350     0.577350     0.000000     0.000000     0.000000
   29     1.000000   180.000000     1.000000     0.000000     0.000000     0.000000     0.000000     0.000000
   30    -1.000000   180.000000     1.000000     0.000000     0.000000     0.000000     0.000000     0.000000
   31     1.000000    90.000000     0.000000    -1.000000     0.000000     0.000000     0.000000     0.000000
   32    -1.000000    90.000000     0.000000    -1.000000     0.000000     0.000000     0.000000     0.000000
   33     1.000000   180.000000     0.707107     0.707107     0.000000     0.000000     0.000000     0.000000
   34    -1.000000   180.000000     0.707107     0.707107     0.000000     0.000000     0.000000     0.000000
   35     1.000000    90.000000     1.000000     0.000000     0.000000     0.000000     0.000000     0.000000
   36    -1.000000    90.000000     1.000000     0.000000     0.000000     0.000000     0.000000     0.000000
   37     1.000000   120.000000     0.577350    -0.577350    -0.577350     0.000000     0.000000     0.000000
   38    -1.000000   120.000000     0.577350    -0.577350    -0.577350     0.000000     0.000000     0.000000
   39     1.000000   180.000000     0.000000     1.000000     0.000000     0.000000     0.000000     0.000000
   40    -1.000000   180.000000     0.000000     1.000000     0.000000     0.000000     0.000000     0.000000
   41     1.000000   120.000000     0.577350     0.577350    -0.577350     0.000000     0.000000     0.000000
   42    -1.000000   120.000000     0.577350     0.577350    -0.577350     0.000000     0.000000     0.000000
   43     1.000000   180.000000     0.000000    -0.707107     0.707107     0.000000     0.000000     0.000000
   44    -1.000000   180.000000     0.000000    -0.707107     0.707107     0.000000     0.000000     0.000000
   45     1.000000   180.000000     0.707107    -0.707107     0.000000     0.000000     0.000000     0.000000
   46    -1.000000   180.000000     0.707107    -0.707107     0.000000     0.000000     0.000000     0.000000
   47     1.000000   180.000000     0.707107     0.000000    -0.707107     0.000000     0.000000     0.000000
   48    -1.000000   180.000000     0.707107     0.000000    -0.707107     0.000000     0.000000     0.000000
 
 Subroutine IBZKPT returns following result:
 ===========================================
 
 Found      4 irreducible k-points:
 
 Following reciprocal coordinates:
            Coordinates               Weight
  0.125000  0.125000  0.125000      8.000000
  0.375000  0.125000  0.125000     24.000000
  0.375000  0.375000  0.125000     24.000000
  0.375000  0.375000  0.375000      8.000000
 
 Following cartesian coordinates:
            Coordinates               Weight
  0.008333  0.008333  0.008333      8.000000
  0.025000  0.008333  0.008333     24.000000
  0.025000  0.025000  0.008333     24.000000
  0.025000  0.025000  0.025000      8.000000
 


--------------------------------------------------------------------------------------------------------




 Dimension of arrays:
   k-points           NKPTS =      4   k-points in BZ     NKDIM =      4   number of bands    NBANDS=     16
   number of dos      NEDOS =    301   number of ions     NIONS =      1
   non local maximal  LDIM  =      6   non local SUM 2l+1 LMDIM =     18
   total plane-waves  NPLWV = 175616
   max r-space proj   IRMAX =      1   max aug-charges    IRDMAX=   3169
   dimension x,y,z NGX =    56 NGY =   56 NGZ =   56
   dimension x,y,z NGXF=   112 NGYF=  112 NGZF=  112
   support grid    NGXF=   112 NGYF=  112 NGZF=  112
   ions per type =               1
   NGX,Y,Z   is equivalent  to a cutoff of   6.21,  6.21,  6.21 a.u.
   NGXF,Y,Z  is equivalent  to a cutoff of  12.41, 12.41, 12.41 a.u.

 SYSTEM =  Te                                      
 POSCAR =  O dimer in a box                        

 Startparameter for this run:
   NWRITE =      2    write-flag & timer
   PREC   = normal    normal or accurate (medium, high low for compatibility)
   ISTART =      0    job   : 0-new  1-cont  2-samecut
   ICHARG =      2    charge: 1-file 2-atom 10-const
   ISPIN  =      2    spin polarized calculation?
   LNONCOLLINEAR =      F non collinear calculations
   LSORBIT =      F    spin-orbit coupling
   INIWAV =      1    electr: 0-lowe 1-rand  2-diag
   LASPH  =      F    aspherical Exc in radial PAW
   METAGGA=      F    non-selfconsistent MetaGGA calc.

 Electronic Relaxation 1
   ENCUT  =  223.1 eV  16.39 Ry    4.05 a.u.  18.27 18.27 18.27*2*pi/ulx,y,z
   ENINI  =  223.1     initial cutoff
   ENAUG  =  373.4 eV  augmentation charge cutoff
   NELM   =    150;   NELMIN=  2; NELMDL= -5     # of ELM steps 
   EDIFF  = 0.1E-05   stopping-criterion for ELM
   LREAL  =      F    real-space projection
   NLSPLINE    = F    spline interpolate recip. space projectors
   LCOMPAT=      F    compatible to vasp.4.4
   GGA_COMPAT  = T    GGA compatible to vasp.4.4-vasp.4.6
   LMAXPAW     = -100 max onsite density
   LMAXMIX     =    2 max onsite mixed and CHGCAR
   VOSKOWN=      0    Vosko Wilk Nusair interpolation
   ROPT   =    0.00000
 Ionic relaxation
   EDIFFG = 0.1E-04   stopping-criterion for IOM
   NSW    =    100    number of steps for IOM
   NBLOCK =      1;   KBLOCK =    100    inner block; outer block 
   IBRION =      2    ionic relax: 0-MD 1-quasi-New 2-CG
   NFREE  =      1    steps in history (QN), initial steepest desc. (CG)
   ISIF   =      2    stress and relaxation
   IWAVPR =     11    prediction:  0-non 1-charg 2-wave 3-comb
   ISYM   =      2    0-nonsym 1-usesym 2-fastsym
   LCORR  =      T    Harris-Foulkes like correction to forces

   POTIM  = 0.5000    time-step for ionic-motion
   TEIN   =    0.0    initial temperature
   TEBEG  =    0.0;   TEEND  =   0.0 temperature during run
   SMASS  =  -3.00    Nose mass-parameter (am)
   estimated Nose-frequenzy (Omega)   =  0.10E-29 period in steps =****** mass=  -0.514E-26a.u.
   SCALEE = 1.0000    scale energy and forces
   NPACO  =    256;   APACO  = 16.0  distance and # of slots for P.C.
   PSTRESS=    0.0 pullay stress

  Mass of Ions in am
   POMASS = 183.85
  Ionic Valenz
   ZVAL   =   6.00
  Atomic Wigner-Seitz radii
   RWIGS  =  -1.00
  virtual crystal weights 
   VCA    =   1.00
   NELECT =       6.0000    total number of electrons
   NUPDOWN=      -1.0000    fix difference up-down

 DOS related values:
   EMIN   =  10.00;   EMAX   =-10.00  energy-range for DOS
   EFERMI =   0.00
   ISMEAR =     0;   SIGMA  =   0.20  broadening in eV -4-tet -1-fermi 0-gaus

 Electronic relaxation 2 (details)
   IALGO  =     38    algorithm
   LDIAG  =      T    sub-space diagonalisation (order eigenvalues)
   LSUBROT=      F    optimize rotation matrix (better conditioning)
   TURBO    =      0    0=normal 1=particle mesh
   IRESTART =      0    0=no restart 2=restart with 2 vectors
   NREBOOT  =      0    no. of reboots
   NMIN     =      0    reboot dimension
   EREF     =   0.00    reference energy to select bands
   IMIX   =      4    mixing-type and parameters
     AMIX     =   0.40;   BMIX     =  1.00
     AMIX_MAG =   1.60;   BMIX_MAG =  1.00
     AMIN     =   0.10
     WC   =   100.;   INIMIX=   1;  MIXPRE=   1;  MAXMIX= -45

 Intra band minimization:
   WEIMIN = 0.0010     energy-eigenvalue tresh-hold
   EBREAK =  0.16E-07  absolut break condition
   DEPER  =   0.30     relativ break condition  

   TIME   =   0.40     timestep for ELM

  volume/ion in A,a.u.               =    3375.00     22775.62
  Fermi-wavevector in a.u.,A,eV,Ry     =   0.198320  0.374771  0.535130  0.039331
  Thomas-Fermi vector in A             =   0.949593
 
 Write flags
   LWAVE        =      T    write WAVECAR
   LDOWNSAMPLE  =      F    k-point downsampling of WAVECAR
   LCHARG       =      T    write CHGCAR
   LVTOT        =      F    write LOCPOT, total local potential
   LVHAR        =      F    write LOCPOT, Hartree potential only
   LELF         =      F    write electronic localiz. function (ELF)
   LORBIT       =      0    0 simple, 1 ext, 2 COOP (PROOUT), +10 PAW based schemes


 Dipole corrections
   LMONO  =      F    monopole corrections only (constant potential shift)
   LDIPOL =      F    correct potential (dipole corrections)
   IDIPOL =      0    1-x, 2-y, 3-z, 4-all directions 
   EPSILON=  1.0000000 bulk dielectric constant

 Exchange correlation treatment:
   GGA     =    --    GGA type
   LEXCH   =     8    internal setting for exchange type
   VOSKOWN=      0    Vosko Wilk Nusair interpolation
   LHFCALC =     F    Hartree Fock is set to
   LHFONE  =     F    Hartree Fock one center treatment
   AEXX    =    0.0000 exact exchange contribution

 Linear response parameters
   LEPSILON=     F    determine dielectric tensor
   LRPA    =     F    only Hartree local field effects (RPA)
   LNABLA  =     F    use nabla operator in PAW spheres
   LVEL    =     F    velocity operator in full k-point grid
   LINTERFAST=   F  fast interpolation
   KINTER  =     0    interpolate to denser k-point grid
   CSHIFT  =0.1000    complex shift for real part using Kramers Kronig
   OMEGAMAX=  -1.0    maximum frequency
   DEG_THRESHOLD= 0.2000000E-02 threshold for treating states as degnerate
   RTIME   =   -0.100 relaxation time in fs
  (WPLASMAI=    0.000 imaginary part of plasma frequency in eV, 0.658/RTIME)
   DFIELD  = 0.0000000 0.0000000 0.0000000 field for delta impulse in time
 
 Orbital magnetization related:
   ORBITALMAG=     F  switch on orbital magnetization
   LCHIMAG   =     F  perturbation theory with respect to B field
   DQ        =  0.001000  dq finite difference perturbation B field
   LLRAUG    =     F  two centre corrections for induced B field



--------------------------------------------------------------------------------------------------------


 conjugate gradient relaxation of ions
   using selective dynamics as specified on POSCAR
 charge density and potential will be updated during run
 spin polarized calculation
 Variant of blocked Davidson
 Davidson routine will perform the subspace rotation
 perform sub-space diagonalisation
    after iterative eigenvector-optimisation
 modified Broyden-mixing scheme, WC =      100.0
 initial mixing is a Kerker type mixing with AMIX =  0.4000 and BMIX =      1.0000
 Hartree-type preconditioning will be used
 using additional bands           13
 reciprocal scheme for non local part
 use partial core corrections
 calculate Harris-corrections to forces 
   (improved forces if not selfconsistent)
 use gradient corrections 
 use of overlap-Matrix (Vanderbilt PP)
 Gauss-broadening in eV      SIGMA  =   0.20


--------------------------------------------------------------------------------------------------------


  energy-cutoff  :      223.06
  volume of cell :     3375.00
      direct lattice vectors                 reciprocal lattice vectors
    15.000000000  0.000000000  0.000000000     0.066666667  0.000000000  0.000000000
     0.000000000 15.000000000  0.000000000     0.000000000  0.066666667  0.000000000
     0.000000000  0.000000000 15.000000000     0.000000000  0.000000000  0.066666667

  length of vectors
    15.000000000 15.000000000 15.000000000     0.066666667  0.066666667  0.066666667


 
 k-points in units of 2pi/SCALE and weight: Gamma-point only                        
   0.00833333  0.00833333  0.00833333       0.125
   0.02500000  0.00833333  0.00833333       0.375
   0.02500000  0.02500000  0.00833333       0.375
   0.02500000  0.02500000  0.02500000       0.125
 
 k-points in reciprocal lattice and weights: Gamma-point only                        
   0.12500000  0.12500000  0.12500000       0.125
   0.37500000  0.12500000  0.12500000       0.375
   0.37500000  0.37500000  0.12500000       0.375
   0.37500000  0.37500000  0.37500000       0.125
 
 position of ions in fractional coordinates (direct lattice) 
   0.50000000  0.50000000  0.50000000
 
 position of ions in cartesian coordinates  (Angst):
   7.50000000  7.50000000  7.50000000
 


--------------------------------------------------------------------------------------------------------


 k-point  1 :   0.1250 0.1250 0.1250  plane waves:   25521
 k-point  2 :   0.3750 0.1250 0.1250  plane waves:   25522
 k-point  3 :   0.3750 0.3750 0.1250  plane waves:   25539
 k-point  4 :   0.3750 0.3750 0.3750  plane waves:   25506

 maximum and minimum number of plane-waves per node :     25539    25506

 maximum number of plane-waves:     25539
 maximum index in each direction: 
   IXMAX=   18   IYMAX=   18   IZMAX=   18
   IXMIN=  -18   IYMIN=  -18   IZMIN=  -18


 serial   3D FFT for wavefunctions
 parallel 3D FFT for charge:
    minimum data exchange during FFTs selected (reduces bandwidth)


 total amount of memory used by VASP MPI-rank0    72716. kBytes
=======================================================================

   base      :      30000. kBytes
   nonl-proj :      15126. kBytes
   fftplans  :       3726. kBytes
   grid      :      20559. kBytes
   one-center:         31. kBytes
   wavefun   :       3274. kBytes
 
     INWAV:  cpu time    0.0001: real time    0.0001
 Broyden mixing: mesh for mixing (old mesh)
   NGX = 37   NGY = 37   NGZ = 37
  (NGX  =112   NGY  =112   NGZ  =112)
  gives a total of  50653 points

 initial charge density was supplied:
 charge density of overlapping atoms calculated
 number of electron       6.0000000 magnetization       1.0000000
 keeping initial charge density in first step


--------------------------------------------------------------------------------------------------------


 Maximum index for augmentation-charges           90 (set IRDMAX)


--------------------------------------------------------------------------------------------------------


 First call to EWALD:  gamma=   0.118
 Maximum number of real-space cells 3x 3x 3
 Maximum number of reciprocal cells 3x 3x 3

    FEWALD:  cpu time    0.0014: real time    0.0018


--------------------------------------- Iteration      1(   1)  ---------------------------------------


    POTLOK:  cpu time    0.0890: real time    0.0918
    SETDIJ:  cpu time    0.0046: real time    0.0046
     EDDAV:  cpu time    0.2258: real time    0.2431
       DOS:  cpu time    0.0006: real time    0.0006
    --------------------------------------------
      LOOP:  cpu time    0.3201: real time    0.3402

 eigenvalue-minimisations  :   256
 total energy-change (2. order) : 0.1272727E+02  (-0.4342072E+02)
 number of electron       6.0000000 magnetization       1.0000000
 augmentation part        6.0000000 magnetization       1.0000000

 Free energy of the ion-electron system (eV)
  ---------------------------------------------------
  alpha Z        PSCENC =         0.21595044
  Ewald energy   TEWEN  =       -49.02777601
  -Hartree energ DENC   =      -142.93938176
  -exchange      EXHF   =         0.00000000
  -V(xc)+E(xc)   XCENC  =       -50.60483515
  PAW double counting   =       241.78821890     -182.65093574
  entropy T*S    EENTRO =        -0.20169439
  eigenvalues    EBANDS =        -8.43266821
  atomic energy  EATOM  =       204.58039518
  Solvation  Ediel_sol  =         0.00000000
  ---------------------------------------------------
  free energy    TOTEN  =        12.72727324 eV

  energy without entropy =       12.92896763  energy(sigma->0) =       12.82812044


--------------------------------------------------------------------------------------------------------




--------------------------------------- Iteration      1(   2)  ---------------------------------------


     EDDAV:  cpu time    0.3602: real time    0.3678
       DOS:  cpu time    0.0003: real time    0.0003
    --------------------------------------------
      LOOP:  cpu time    0.3605: real time    0.3681

 eigenvalue-minimisations  :   512
 total energy-change (2. order) :-0.1078472E+02  (-0.1054984E+02)
 number of electron       6.0000000 magnetization       1.0000000
 augmentation part        6.0000000 magnetization       1.0000000

 Free energy of the ion-electron system (eV)
  ---------------------------------------------------
  alpha Z        PSCENC =         0.21595044
  Ewald energy   TEWEN  =       -49.02777601
  -Hartree energ DENC   =      -142.93938176
  -exchange      EXHF   =         0.00000000
  -V(xc)+E(xc)   XCENC  =       -50.60483515
  PAW double counting   =       241.78821890     -182.65093574
  entropy T*S    EENTRO =        -0.08721827
  eigenvalues    EBANDS =       -19.33186270
  atomic energy  EATOM  =       204.58039518
  Solvation  Ediel_sol  =         0.00000000
  ---------------------------------------------------
  free energy    TOTEN  =         1.94255488 eV

  energy without entropy =        2.02977315  energy(sigma->0) =        1.98616402


--------------------------------------------------------------------------------------------------------




--------------------------------------- Iteration      1(   3)  ---------------------------------------


     EDDAV:  cpu time    0.2791: real time    0.2824
       DOS:  cpu time    0.0003: real time    0.0003
    --------------------------------------------
      LOOP:  cpu time    0.2794: real time    0.2828

 eigenvalue-minimisations  :   400
 total energy-change (2. order) :-0.4724908E+01  (-0.3952245E+01)
 number of electron       6.0000000 magnetization       1.0000000
 augmentation part        6.0000000 magnetization       1.0000000

 Free energy of the ion-electron system (eV)
  ---------------------------------------------------
  alpha Z        PSCENC =         0.21595044
  Ewald energy   TEWEN  =       -49.02777601
  -Hartree energ DENC   =      -142.93938176
  -exchange      EXHF   =         0.00000000
  -V(xc)+E(xc)   XCENC  =       -50.60483515
  PAW double counting   =       241.78821890     -182.65093574
  entropy T*S    EENTRO =        -0.19621876
  eigenvalues    EBANDS =       -23.94776997
  atomic energy  EATOM  =       204.58039518
  Solvation  Ediel_sol  =         0.00000000
  ---------------------------------------------------
  free energy    TOTEN  =        -2.78235289 eV

  energy without entropy =       -2.58613412  energy(sigma->0) =       -2.68424350


--------------------------------------------------------------------------------------------------------




--------------------------------------- Iteration      1(   4)  ---------------------------------------


     EDDAV:  cpu time    0.1973: real time    0.1985
       DOS:  cpu time    0.0008: real time    0.0008
    --------------------------------------------
      LOOP:  cpu time    0.1980: real time    0.1993

 eigenvalue-minimisations  :   256
 total energy-change (2. order) :-0.1312137E+00  (-0.1187704E+00)
 number of electron       6.0000000 magnetization       1.0000000
 augmentation part        6.0000000 magnetization       1.0000000

 Free energy of the ion-electron system (eV)
  ---------------------------------------------------
  alpha Z        PSCENC =         0.21595044
  Ewald energy   TEWEN  =       -49.02777601
  -Hartree energ DENC   =      -142.93938176
  -exchange      EXHF   =         0.00000000
  -V(xc)+E(xc)   XCENC  =       -50.60483515
  PAW double counting   =       241.78821890     -182.65093574
  entropy T*S    EENTRO =        -0.20640461
  eigenvalues    EBANDS =       -24.06879784
  atomic energy  EATOM  =       204.58039518
  Solvation  Ediel_sol  =         0.00000000
  ---------------------------------------------------
  free energy    TOTEN  =        -2.91356660 eV

  energy without entropy =       -2.70716199  energy(sigma->0) =       -2.81036430


--------------------------------------------------------------------------------------------------------




--------------------------------------- Iteration      1(   5)  ---------------------------------------


     EDDAV:  cpu time    0.2742: real time    0.2762
       DOS:  cpu time    0.0003: real time    0.0003
    CHARGE:  cpu time    0.0584: real time    0.0612
    MIXING:  cpu time    0.0021: real time    0.0022
    --------------------------------------------
      LOOP:  cpu time    0.3351: real time    0.3398

 eigenvalue-minimisations  :   384
 total energy-change (2. order) :-0.3653932E-02  (-0.3644836E-02)
 number of electron       5.9999975 magnetization       1.7090771
 augmentation part        0.6381883 magnetization      -1.5568126

 Broyden mixing:
  rms(total) = 0.86557E+00    rms(broyden)= 0.86539E+00
  rms(prec ) = 0.88515E+00
  weight for this iteration     100.00

 Free energy of the ion-electron system (eV)
  ---------------------------------------------------
  alpha Z        PSCENC =         0.21595044
  Ewald energy   TEWEN  =       -49.02777601
  -Hartree energ DENC   =      -142.93938176
  -exchange      EXHF   =         0.00000000
  -V(xc)+E(xc)   XCENC  =       -50.60483515
  PAW double counting   =       241.78821890     -182.65093574
  entropy T*S    EENTRO =        -0.20646898
  eigenvalues    EBANDS =       -24.07238739
  atomic energy  EATOM  =       204.58039518
  Solvation  Ediel_sol  =         0.00000000
  ---------------------------------------------------
  free energy    TOTEN  =        -2.91722053 eV

  energy without entropy =       -2.71075155  energy(sigma->0) =       -2.81398604


--------------------------------------------------------------------------------------------------------




--------------------------------------- Iteration      1(   6)  ---------------------------------------


    POTLOK:  cpu time    0.0790: real time    0.0794
    SETDIJ:  cpu time    0.0034: real time    0.0034
     EDDAV:  cpu time    0.2070: real time    0.2092
       DOS:  cpu time    0.0004: real time    0.0004
    CHARGE:  cpu time    0.0512: real time    0.0530
    MIXING:  cpu time    0.0026: real time    0.0065
    --------------------------------------------
      LOOP:  cpu time    0.3435: real time    0.3520

 eigenvalue-minimisations  :   272
 total energy-change (2. order) : 0.6191453E+01  (-0.3318947E+01)
 number of electron       5.9999969 magnetization       2.2159372
 augmentation part        0.7871134 magnetization      -0.9270262

 Broyden mixing:
  rms(total) = 0.32679E+00    rms(broyden)= 0.32670E+00
  rms(prec ) = 0.34088E+00
  weight for this iteration     100.00

 eigenvalues of (default mixing * dielectric matrix)
  average eigenvalue GAMMA=   0.9319
  0.9319

 Free energy of the ion-electron system (eV)
  ---------------------------------------------------
  alpha Z        PSCENC =         0.21595044
  Ewald energy   TEWEN  =       -49.02777601
  -Hartree energ DENC   =      -138.98511013
  -exchange      EXHF   =         0.00000000
  -V(xc)+E(xc)   XCENC  =       -43.91419443
  PAW double counting   =       236.14447335     -177.49341472
  entropy T*S    EENTRO =        -0.21109496
  eigenvalues    EBANDS =       -28.03499617
  atomic energy  EATOM  =       204.58039518
  Solvation  Ediel_sol  =         0.00000000
  ---------------------------------------------------
  free energy    TOTEN  =         3.27423255 eV

  energy without entropy =        3.48532751  energy(sigma->0) =        3.37978003


--------------------------------------------------------------------------------------------------------




--------------------------------------- Iteration      1(   7)  ---------------------------------------


    POTLOK:  cpu time    0.0766: real time    0.0771
    SETDIJ:  cpu time    0.0031: real time    0.0031
     EDDAV:  cpu time    0.2536: real time    0.2576
       DOS:  cpu time    0.0005: real time    0.0005
    CHARGE:  cpu time    0.0505: real time    0.0523
    MIXING:  cpu time    0.0020: real time    0.0030
    --------------------------------------------
      LOOP:  cpu time    0.3863: real time    0.3937

 eigenvalue-minimisations  :   352
 total energy-change (2. order) :-0.1094221E+01  (-0.1160674E+00)
 number of electron       5.9999971 magnetization       2.5477126
 augmentation part        0.7339760 magnetization      -0.6597409

 Broyden mixing:
  rms(total) = 0.19141E+00    rms(broyden)= 0.19140E+00
  rms(prec ) = 0.19420E+00
  weight for this iteration     100.00

 eigenvalues of (default mixing * dielectric matrix)
  average eigenvalue GAMMA=   0.7980
  0.9794  0.6166

 Free energy of the ion-electron system (eV)
  ---------------------------------------------------
  alpha Z        PSCENC =         0.21595044
  Ewald energy   TEWEN  =       -49.02777601
  -Hartree energ DENC   =      -141.06094635
  -exchange      EXHF   =         0.00000000
  -V(xc)+E(xc)   XCENC  =       -44.15612701
  PAW double counting   =       230.42559713     -171.82966896
  entropy T*S    EENTRO =        -0.19829795
  eigenvalues    EBANDS =       -26.76911538
  atomic energy  EATOM  =       204.58039518
  Solvation  Ediel_sol  =         0.00000000
  ---------------------------------------------------
  free energy    TOTEN  =         2.18001109 eV

  energy without entropy =        2.37830904  energy(sigma->0) =        2.27916007


--------------------------------------------------------------------------------------------------------




--------------------------------------- Iteration      1(   8)  ---------------------------------------


    POTLOK:  cpu time    0.0768: real time    0.0772
    SETDIJ:  cpu time    0.0031: real time    0.0031
     EDDAV:  cpu time    0.2806: real time    0.2827
       DOS:  cpu time    0.0003: real time    0.0003
    CHARGE:  cpu time    0.0515: real time    0.0521
    MIXING:  cpu time    0.0020: real time    0.0023
    --------------------------------------------
      LOOP:  cpu time    0.4141: real time    0.4177

 eigenvalue-minimisations  :   400
 total energy-change (2. order) :-0.1942011E+01  (-0.8650478E-01)
 number of electron       5.9999972 magnetization       2.9436032
 augmentation part        0.7195731 magnetization      -0.3138124

 Broyden mixing:
  rms(total) = 0.98632E-01    rms(broyden)= 0.98630E-01
  rms(prec ) = 0.10244E+00
  weight for this iteration     100.00

 eigenvalues of (default mixing * dielectric matrix)
  average eigenvalue GAMMA=   0.9424
  1.0781  1.0781  0.6708

 Free energy of the ion-electron system (eV)
  ---------------------------------------------------
  alpha Z        PSCENC =         0.21595044
  Ewald energy   TEWEN  =       -49.02777601
  -Hartree energ DENC   =      -141.42200777
  -exchange      EXHF   =         0.00000000
  -V(xc)+E(xc)   XCENC  =       -45.49328424
  PAW double counting   =       235.03277329     -176.54439096
  entropy T*S    EENTRO =        -0.20230936
  eigenvalues    EBANDS =       -26.90135019
  atomic energy  EATOM  =       204.58039518
  Solvation  Ediel_sol  =         0.00000000
  ---------------------------------------------------
  free energy    TOTEN  =         0.23800037 eV

  energy without entropy =        0.44030973  energy(sigma->0) =        0.33915505


--------------------------------------------------------------------------------------------------------




--------------------------------------- Iteration      1(   9)  ---------------------------------------


    POTLOK:  cpu time    0.0763: real time    0.0768
    SETDIJ:  cpu time    0.0030: real time    0.0031
     EDDAV:  cpu time    0.2516: real time    0.2540
       DOS:  cpu time    0.0003: real time    0.0003
    CHARGE:  cpu time    0.0515: real time    0.0528
    MIXING:  cpu time    0.0024: real time    0.0026
    --------------------------------------------
      LOOP:  cpu time    0.3851: real time    0.3895

 eigenvalue-minimisations  :   352
 total energy-change (2. order) :-0.1825585E+01  (-0.8213307E-01)
 number of electron       5.9999970 magnetization       3.4247223
 augmentation part        0.7643075 magnetization      -0.2935780

 Broyden mixing:
  rms(total) = 0.11753E+00    rms(broyden)= 0.11752E+00
  rms(prec ) = 0.11958E+00
  weight for this iteration     100.00

 eigenvalues of (default mixing * dielectric matrix)
  average eigenvalue GAMMA=   1.0332
  2.0686  0.7704  0.7704  0.5235

 Free energy of the ion-electron system (eV)
  ---------------------------------------------------
  alpha Z        PSCENC =         0.21595044
  Ewald energy   TEWEN  =       -49.02777601
  -Hartree energ DENC   =      -141.18777318
  -exchange      EXHF   =         0.00000000
  -V(xc)+E(xc)   XCENC  =       -46.81647465
  PAW double counting   =       240.19769494     -181.80210612
  entropy T*S    EENTRO =        -0.20895926
  eigenvalues    EBANDS =       -27.53853550
  atomic energy  EATOM  =       204.58039518
  Solvation  Ediel_sol  =         0.00000000
  ---------------------------------------------------
  free energy    TOTEN  =        -1.58758417 eV

  energy without entropy =       -1.37862491  energy(sigma->0) =       -1.48310454


--------------------------------------------------------------------------------------------------------




--------------------------------------- Iteration      1(  10)  ---------------------------------------


    POTLOK:  cpu time    0.0800: real time    0.0805
    SETDIJ:  cpu time    0.0032: real time    0.0032
     EDDAV:  cpu time    0.2282: real time    0.2308
       DOS:  cpu time    0.0004: real time    0.0004
    CHARGE:  cpu time    0.0527: real time    0.0533
    MIXING:  cpu time    0.0027: real time    0.0027
    --------------------------------------------
      LOOP:  cpu time    0.3673: real time    0.3710

 eigenvalue-minimisations  :   272
 total energy-change (2. order) :-0.7767700E+00  (-0.1896251E-01)
 number of electron       5.9999967 magnetization       3.1844355
 augmentation part        0.8368412 magnetization      -1.1900454

 Broyden mixing:
  rms(total) = 0.19175E+00    rms(broyden)= 0.19173E+00
  rms(prec ) = 0.20802E+00
  weight for this iteration     100.00

 eigenvalues of (default mixing * dielectric matrix)
  average eigenvalue GAMMA=   0.9897
  2.0479  0.8767  0.8767  0.6049  0.5421

 Free energy of the ion-electron system (eV)
  ---------------------------------------------------
  alpha Z        PSCENC =         0.21595044
  Ewald energy   TEWEN  =       -49.02777601
  -Hartree energ DENC   =      -141.63823347
  -exchange      EXHF   =         0.00000000
  -V(xc)+E(xc)   XCENC  =       -47.10606261
  PAW double counting   =       244.43309835     -186.07671936
  entropy T*S    EENTRO =        -0.15541916
  eigenvalues    EBANDS =       -27.58958752
  atomic energy  EATOM  =       204.58039518
  Solvation  Ediel_sol  =         0.00000000
  ---------------------------------------------------
  free energy    TOTEN  =        -2.36435417 eV

  energy without entropy =       -2.20893501  energy(sigma->0) =       -2.28664459


--------------------------------------------------------------------------------------------------------




--------------------------------------- Iteration      1(  11)  ---------------------------------------


    POTLOK:  cpu time    0.0761: real time    0.0765
    SETDIJ:  cpu time    0.0031: real time    0.0031
     EDDAV:  cpu time    0.1976: real time    0.1989
       DOS:  cpu time    0.0003: real time    0.0003
    CHARGE:  cpu time    0.0536: real time    0.0552
    MIXING:  cpu time    0.0023: real time    0.0024
    --------------------------------------------
      LOOP:  cpu time    0.3331: real time    0.3363

 eigenvalue-minimisations  :   256
 total energy-change (2. order) :-0.1447457E+00  (-0.9012905E-02)
 number of electron       5.9999966 magnetization       2.7884922
 augmentation part        0.8474699 magnetization      -1.5649042

 Broyden mixing:
  rms(total) = 0.27007E+00    rms(broyden)= 0.27006E+00
  rms(prec ) = 0.29430E+00
  weight for this iteration     100.00

 eigenvalues of (default mixing * dielectric matrix)
  average eigenvalue GAMMA=   1.1684
  1.9786  2.2303  0.8293  0.8293  0.5715  0.5715

 Free energy of the ion-electron system (eV)
  ---------------------------------------------------
  alpha Z        PSCENC =         0.21595044
  Ewald energy   TEWEN  =       -49.02777601
  -Hartree energ DENC   =      -139.87346104
  -exchange      EXHF   =         0.00000000
  -V(xc)+E(xc)   XCENC  =       -47.43689155
  PAW double counting   =       238.83799547     -180.58620966
  entropy T*S    EENTRO =        -0.15648113
  eigenvalues    EBANDS =       -29.06262153
  atomic energy  EATOM  =       204.58039518
  Solvation  Ediel_sol  =         0.00000000
  ---------------------------------------------------
  free energy    TOTEN  =        -2.50909983 eV

  energy without entropy =       -2.35261869  energy(sigma->0) =       -2.43085926


--------------------------------------------------------------------------------------------------------




--------------------------------------- Iteration      1(  12)  ---------------------------------------


    POTLOK:  cpu time    0.0766: real time    0.0769
    SETDIJ:  cpu time    0.0030: real time    0.0030
     EDDAV:  cpu time    0.2094: real time    0.2102
       DOS:  cpu time    0.0003: real time    0.0003
    CHARGE:  cpu time    0.0538: real time    0.0544
    MIXING:  cpu time    0.0026: real time    0.0026
    --------------------------------------------
      LOOP:  cpu time    0.3456: real time    0.3474

 eigenvalue-minimisations  :   288
 total energy-change (2. order) : 0.1639470E+00  (-0.1909347E-01)
 number of electron       5.9999965 magnetization       3.9734369
 augmentation part        0.8731515 magnetization      -0.4140866

 Broyden mixing:
  rms(total) = 0.38968E+00    rms(broyden)= 0.38967E+00
  rms(prec ) = 0.42878E+00
  weight for this iteration     100.00

 eigenvalues of (default mixing * dielectric matrix)
  average eigenvalue GAMMA=   1.0613
  2.2332  1.0598  1.0598  0.9128  0.9128  0.6254  0.6254

 Free energy of the ion-electron system (eV)
  ---------------------------------------------------
  alpha Z        PSCENC =         0.21595044
  Ewald energy   TEWEN  =       -49.02777601
  -Hartree energ DENC   =      -137.68926578
  -exchange      EXHF   =         0.00000000
  -V(xc)+E(xc)   XCENC  =       -47.51496992
  PAW double counting   =       230.64419767     -172.54930065
  entropy T*S    EENTRO =        -0.14907073
  eigenvalues    EBANDS =       -30.85531306
  atomic energy  EATOM  =       204.58039518
  Solvation  Ediel_sol  =         0.00000000
  ---------------------------------------------------
  free energy    TOTEN  =        -2.34515286 eV

  energy without entropy =       -2.19608213  energy(sigma->0) =       -2.27061750


--------------------------------------------------------------------------------------------------------




--------------------------------------- Iteration      1(  13)  ---------------------------------------


    POTLOK:  cpu time    0.0759: real time    0.0762
    SETDIJ:  cpu time    0.0030: real time    0.0030
     EDDAV:  cpu time    0.1914: real time    0.1930
       DOS:  cpu time    0.0003: real time    0.0003
    CHARGE:  cpu time    0.0529: real time    0.0535
    MIXING:  cpu time    0.0030: real time    0.0030
    --------------------------------------------
      LOOP:  cpu time    0.3265: real time    0.3290

 eigenvalue-minimisations  :   256
 total energy-change (2. order) :-0.8818484E+00  (-0.1111228E+00)
 number of electron       5.9999965 magnetization       5.8236326
 augmentation part        0.8744718 magnetization       1.0173346

 Broyden mixing:
  rms(total) = 0.23710E+00    rms(broyden)= 0.23710E+00
  rms(prec ) = 0.25831E+00
  weight for this iteration     100.00

 eigenvalues of (default mixing * dielectric matrix)
  average eigenvalue GAMMA=   1.3433
  3.1021  1.6671  1.6671  1.1484  1.1484  0.7196  0.7196  0.5740

 Free energy of the ion-electron system (eV)
  ---------------------------------------------------
  alpha Z        PSCENC =         0.21595044
  Ewald energy   TEWEN  =       -49.02777601
  -Hartree energ DENC   =      -142.16229501
  -exchange      EXHF   =         0.00000000
  -V(xc)+E(xc)   XCENC  =       -47.52594429
  PAW double counting   =       249.28040035     -190.82040737
  entropy T*S    EENTRO =        -0.08296144
  eigenvalues    EBANDS =       -27.68436310
  atomic energy  EATOM  =       204.58039518
  Solvation  Ediel_sol  =         0.00000000
  ---------------------------------------------------
  free energy    TOTEN  =        -3.22700125 eV

  energy without entropy =       -3.14403981  energy(sigma->0) =       -3.18552053


--------------------------------------------------------------------------------------------------------




--------------------------------------- Iteration      1(  14)  ---------------------------------------


    POTLOK:  cpu time    0.0764: real time    0.0767
    SETDIJ:  cpu time    0.0034: real time    0.0034
     EDDAV:  cpu time    0.1923: real time    0.1930
       DOS:  cpu time    0.0003: real time    0.0003
    CHARGE:  cpu time    0.0460: real time    0.0474
    MIXING:  cpu time    0.0030: real time    0.0030
    --------------------------------------------
      LOOP:  cpu time    0.3213: real time    0.3238

 eigenvalue-minimisations  :   256
 total energy-change (2. order) :-0.6232181E+00  (-0.8070156E+00)
 number of electron       5.9999966 magnetization       5.7312035
 augmentation part        0.8444088 magnetization       0.5756157

 Broyden mixing:
  rms(total) = 0.52023E-01    rms(broyden)= 0.51933E-01
  rms(prec ) = 0.56658E-01
  weight for this iteration     100.00

 eigenvalues of (default mixing * dielectric matrix)
  average eigenvalue GAMMA=   1.2939
  2.6137  2.1409  2.1409  1.0587  1.0587  0.7088  0.7088  0.6075  0.6075

 Free energy of the ion-electron system (eV)
  ---------------------------------------------------
  alpha Z        PSCENC =         0.21595044
  Ewald energy   TEWEN  =       -49.02777601
  -Hartree energ DENC   =      -147.89616431
  -exchange      EXHF   =         0.00000000
  -V(xc)+E(xc)   XCENC  =       -46.61411460
  PAW double counting   =       273.12398135     -214.08070157
  entropy T*S    EENTRO =        -0.00000000
  eigenvalues    EBANDS =       -24.15178986
  atomic energy  EATOM  =       204.58039518
  Solvation  Ediel_sol  =         0.00000000
  ---------------------------------------------------
  free energy    TOTEN  =        -3.85021939 eV

  energy without entropy =       -3.85021939  energy(sigma->0) =       -3.85021939


--------------------------------------------------------------------------------------------------------




--------------------------------------- Iteration      1(  15)  ---------------------------------------


    POTLOK:  cpu time    0.0764: real time    0.0767
    SETDIJ:  cpu time    0.0033: real time    0.0033
     EDDAV:  cpu time    0.2025: real time    0.2033
       DOS:  cpu time    0.0003: real time    0.0003
    CHARGE:  cpu time    0.0536: real time    0.0543
    MIXING:  cpu time    0.0039: real time    0.0039
    --------------------------------------------
      LOOP:  cpu time    0.3401: real time    0.3418

 eigenvalue-minimisations  :   272
 total energy-change (2. order) :-0.5165311E+00  (-0.9060893E-02)
 number of electron       5.9999966 magnetization       6.3342997
 augmentation part        0.8542884 magnetization       1.1887540

 Broyden mixing:
  rms(total) = 0.20113E-01    rms(broyden)= 0.20111E-01
  rms(prec ) = 0.22444E-01
  weight for this iteration     100.00

 eigenvalues of (default mixing * dielectric matrix)
  average eigenvalue GAMMA=   1.4136
  5.1343  2.3431  1.0574  1.0574  0.9934  0.9934  0.6760  0.6760  0.5739  0.6309

 Free energy of the ion-electron system (eV)
  ---------------------------------------------------
  alpha Z        PSCENC =         0.21595044
  Ewald energy   TEWEN  =       -49.02777601
  -Hartree energ DENC   =      -147.03366826
  -exchange      EXHF   =         0.00000000
  -V(xc)+E(xc)   XCENC  =       -47.29011048
  PAW double counting   =       268.79069392     -209.77360032
  entropy T*S    EENTRO =        -0.00009135
  eigenvalues    EBANDS =       -24.82854361
  atomic energy  EATOM  =       204.58039518
  Solvation  Ediel_sol  =         0.00000000
  ---------------------------------------------------
  free energy    TOTEN  =        -4.36675048 eV

  energy without entropy =       -4.36665914  energy(sigma->0) =       -4.36670481


--------------------------------------------------------------------------------------------------------




--------------------------------------- Iteration      1(  16)  ---------------------------------------


    POTLOK:  cpu time    0.0764: real time    0.0767
    SETDIJ:  cpu time    0.0030: real time    0.0030
     EDDAV:  cpu time    0.1938: real time    0.1945
       DOS:  cpu time    0.0002: real time    0.0002
    CHARGE:  cpu time    0.0460: real time    0.0469
    MIXING:  cpu time    0.0035: real time    0.0037
    --------------------------------------------
      LOOP:  cpu time    0.3229: real time    0.3250

 eigenvalue-minimisations  :   256
 total energy-change (2. order) : 0.3141770E+01  (-0.1788492E-01)
 number of electron       5.9999967 magnetization       6.3546920
 augmentation part        0.8322561 magnetization       1.1869514

 Broyden mixing:
  rms(total) = 0.11598E+00    rms(broyden)= 0.11597E+00
  rms(prec ) = 0.13011E+00
  weight for this iteration     100.00

 eigenvalues of (default mixing * dielectric matrix)
  average eigenvalue GAMMA=   1.5150
  5.3106  2.8965  1.5184  1.5184  1.0807  1.0807  0.7969  0.7969  0.6009  0.6009
  0.4641

 Free energy of the ion-electron system (eV)
  ---------------------------------------------------
  alpha Z        PSCENC =         0.21595044
  Ewald energy   TEWEN  =       -49.02777601
  -Hartree energ DENC   =      -149.24720698
  -exchange      EXHF   =         0.00000000
  -V(xc)+E(xc)   XCENC  =       -43.75253515
  PAW double counting   =       275.06050955     -215.83215749
  entropy T*S    EENTRO =        -0.00000000
  eigenvalues    EBANDS =       -23.22216004
  atomic energy  EATOM  =       204.58039518
  Solvation  Ediel_sol  =         0.00000000
  ---------------------------------------------------
  free energy    TOTEN  =        -1.22498051 eV

  energy without entropy =       -1.22498051  energy(sigma->0) =       -1.22498051


--------------------------------------------------------------------------------------------------------




--------------------------------------- Iteration      1(  17)  ---------------------------------------


    POTLOK:  cpu time    0.0769: real time    0.0773
    SETDIJ:  cpu time    0.0031: real time    0.0031
     EDDAV:  cpu time    0.2714: real time    0.2727
       DOS:  cpu time    0.0006: real time    0.0006
    CHARGE:  cpu time    0.0461: real time    0.0467
    MIXING:  cpu time    0.0036: real time    0.0036
    --------------------------------------------
      LOOP:  cpu time    0.4016: real time    0.4040

 eigenvalue-minimisations  :   384
 total energy-change (2. order) :-0.7720108E+00  (-0.4437422E-02)
 number of electron       5.9999967 magnetization       5.9809917
 augmentation part        0.8348206 magnetization       0.8158156

 Broyden mixing:
  rms(total) = 0.10454E+00    rms(broyden)= 0.10454E+00
  rms(prec ) = 0.11818E+00
  weight for this iteration     100.00

 eigenvalues of (default mixing * dielectric matrix)
  average eigenvalue GAMMA=   1.5330
  4.4235  4.4235  1.9119  1.0542  1.0542  1.0198  1.0198  0.9190  0.9190  0.5837
  0.5705  0.4975

 Free energy of the ion-electron system (eV)
  ---------------------------------------------------
  alpha Z        PSCENC =         0.21595044
  Ewald energy   TEWEN  =       -49.02777601
  -Hartree energ DENC   =      -148.67003240
  -exchange      EXHF   =         0.00000000
  -V(xc)+E(xc)   XCENC  =       -44.60650014
  PAW double counting   =       267.74392323     -208.55588581
  entropy T*S    EENTRO =        -0.00000000
  eigenvalues    EBANDS =       -23.67706582
  atomic energy  EATOM  =       204.58039518
  Solvation  Ediel_sol  =         0.00000000
  ---------------------------------------------------
  free energy    TOTEN  =        -1.99699134 eV

  energy without entropy =       -1.99699134  energy(sigma->0) =       -1.99699134


--------------------------------------------------------------------------------------------------------




--------------------------------------- Iteration      1(  18)  ---------------------------------------


    POTLOK:  cpu time    0.0759: real time    0.0763
    SETDIJ:  cpu time    0.0030: real time    0.0030
     EDDAV:  cpu time    0.2383: real time    0.2394
       DOS:  cpu time    0.0005: real time    0.0005
    CHARGE:  cpu time    0.0562: real time    0.0573
    MIXING:  cpu time    0.0038: real time    0.0039
    --------------------------------------------
      LOOP:  cpu time    0.3778: real time    0.3804

 eigenvalue-minimisations  :   336
 total energy-change (2. order) :-0.2529988E+01  (-0.1059133E-01)
 number of electron       5.9999966 magnetization       6.0481063
 augmentation part        0.8526022 magnetization       0.9007537

 Broyden mixing:
  rms(total) = 0.11420E-01    rms(broyden)= 0.11363E-01
  rms(prec ) = 0.12709E-01
  weight for this iteration     100.00

 eigenvalues of (default mixing * dielectric matrix)
  average eigenvalue GAMMA=   1.4303
  3.7670  3.7670  2.5882  1.0633  1.0633  1.2256  1.2256  0.8398  0.8398  0.6351
  0.5931  0.4931  0.4931

 Free energy of the ion-electron system (eV)
  ---------------------------------------------------
  alpha Z        PSCENC =         0.21595044
  Ewald energy   TEWEN  =       -49.02777601
  -Hartree energ DENC   =      -146.35201166
  -exchange      EXHF   =         0.00000000
  -V(xc)+E(xc)   XCENC  =       -47.46629259
  PAW double counting   =       260.09607590     -201.07760618
  entropy T*S    EENTRO =        -0.00002532
  eigenvalues    EBANDS =       -25.49568875
  atomic energy  EATOM  =       204.58039518
  Solvation  Ediel_sol  =         0.00000000
  ---------------------------------------------------
  free energy    TOTEN  =        -4.52697900 eV

  energy without entropy =       -4.52695368  energy(sigma->0) =       -4.52696634


--------------------------------------------------------------------------------------------------------




--------------------------------------- Iteration      1(  19)  ---------------------------------------


    POTLOK:  cpu time    0.0763: real time    0.0767
    SETDIJ:  cpu time    0.0031: real time    0.0031
     EDDAV:  cpu time    0.2002: real time    0.2010
       DOS:  cpu time    0.0002: real time    0.0002
    CHARGE:  cpu time    0.0480: real time    0.0486
    MIXING:  cpu time    0.0041: real time    0.0041
    --------------------------------------------
      LOOP:  cpu time    0.3319: real time    0.3338

 eigenvalue-minimisations  :   272
 total energy-change (2. order) : 0.1160799E+00  (-0.3317550E-03)
 number of electron       5.9999966 magnetization       6.1670069
 augmentation part        0.8515188 magnetization       1.0185291

 Broyden mixing:
  rms(total) = 0.16284E-01    rms(broyden)= 0.16284E-01
  rms(prec ) = 0.18123E-01
  weight for this iteration     100.00

 eigenvalues of (default mixing * dielectric matrix)
  average eigenvalue GAMMA=   1.4394
  5.7481  2.3929  2.0406  2.0406  1.0397  1.0397  0.9795  0.9795  0.7386  0.7386
  0.6639  0.6639  0.5431  0.5431

 Free energy of the ion-electron system (eV)
  ---------------------------------------------------
  alpha Z        PSCENC =         0.21595044
  Ewald energy   TEWEN  =       -49.02777601
  -Hartree energ DENC   =      -146.54608166
  -exchange      EXHF   =         0.00000000
  -V(xc)+E(xc)   XCENC  =       -47.26069128
  PAW double counting   =       262.95422925     -203.91513811
  entropy T*S    EENTRO =        -0.00000000
  eigenvalues    EBANDS =       -25.41178693
  atomic energy  EATOM  =       204.58039518
  Solvation  Ediel_sol  =         0.00000000
  ---------------------------------------------------
  free energy    TOTEN  =        -4.41089913 eV

  energy without entropy =       -4.41089913  energy(sigma->0) =       -4.41089913


--------------------------------------------------------------------------------------------------------




--------------------------------------- Iteration      1(  20)  ---------------------------------------


    POTLOK:  cpu time    0.0764: real time    0.0767
    SETDIJ:  cpu time    0.0030: real time    0.0030
     EDDAV:  cpu time    0.2357: real time    0.2367
       DOS:  cpu time    0.0002: real time    0.0002
    CHARGE:  cpu time    0.0465: real time    0.0474
    MIXING:  cpu time    0.0046: real time    0.0047
    --------------------------------------------
      LOOP:  cpu time    0.3664: real time    0.3687

 eigenvalue-minimisations  :   336
 total energy-change (2. order) : 0.7360718E+00  (-0.1230670E-02)
 number of electron       5.9999966 magnetization       5.9913548
 augmentation part        0.8454204 magnetization       0.8367785

 Broyden mixing:
  rms(total) = 0.46807E-01    rms(broyden)= 0.46806E-01
  rms(prec ) = 0.52676E-01
  weight for this iteration     100.00

 eigenvalues of (default mixing * dielectric matrix)
  average eigenvalue GAMMA=   1.5520
  4.7547  4.7547  2.1999  2.1999  1.0607  1.0607  1.2227  1.2227  0.8816  0.7958
  0.7958  0.6368  0.6156  0.5393  0.5393

 Free energy of the ion-electron system (eV)
  ---------------------------------------------------
  alpha Z        PSCENC =         0.21595044
  Ewald energy   TEWEN  =       -49.02777601
  -Hartree energ DENC   =      -147.19783430
  -exchange      EXHF   =         0.00000000
  -V(xc)+E(xc)   XCENC  =       -46.44179746
  PAW double counting   =       264.85407715     -205.76509360
  entropy T*S    EENTRO =        -0.00000000
  eigenvalues    EBANDS =       -24.89274872
  atomic energy  EATOM  =       204.58039518
  Solvation  Ediel_sol  =         0.00000000
  ---------------------------------------------------
  free energy    TOTEN  =        -3.67482734 eV

  energy without entropy =       -3.67482734  energy(sigma->0) =       -3.67482734


--------------------------------------------------------------------------------------------------------




--------------------------------------- Iteration      1(  21)  ---------------------------------------


    POTLOK:  cpu time    0.0759: real time    0.0763
    SETDIJ:  cpu time    0.0030: real time    0.0030
     EDDAV:  cpu time    0.2496: real time    0.2510
       DOS:  cpu time    0.0003: real time    0.0003
    CHARGE:  cpu time    0.0519: real time    0.0532
    MIXING:  cpu time    0.0046: real time    0.0046
    --------------------------------------------
      LOOP:  cpu time    0.3853: real time    0.3884

 eigenvalue-minimisations  :   352
 total energy-change (2. order) :-0.8633357E+00  (-0.2411871E-02)
 number of electron       5.9999966 magnetization       6.0399568
 augmentation part        0.8537841 magnetization       0.8937491

 Broyden mixing:
  rms(total) = 0.41303E-02    rms(broyden)= 0.41012E-02
  rms(prec ) = 0.45946E-02
  weight for this iteration     100.00

 eigenvalues of (default mixing * dielectric matrix)
  average eigenvalue GAMMA=   1.5131
  4.9479  3.8921  2.7232  2.7232  1.0601  1.0601  1.1950  1.1950  0.7984  0.7984
  0.7147  0.7147  0.7122  0.5800  0.5475  0.5475

 Free energy of the ion-electron system (eV)
  ---------------------------------------------------
  alpha Z        PSCENC =         0.21595044
  Ewald energy   TEWEN  =       -49.02777601
  -Hartree energ DENC   =      -146.09547077
  -exchange      EXHF   =         0.00000000
  -V(xc)+E(xc)   XCENC  =       -47.47245110
  PAW double counting   =       261.25373314     -202.24302116
  entropy T*S    EENTRO =        -0.00000325
  eigenvalues    EBANDS =       -25.74951949
  atomic energy  EATOM  =       204.58039518
  Solvation  Ediel_sol  =         0.00000000
  ---------------------------------------------------
  free energy    TOTEN  =        -4.53816302 eV

  energy without entropy =       -4.53815977  energy(sigma->0) =       -4.53816139


--------------------------------------------------------------------------------------------------------




--------------------------------------- Iteration      1(  22)  ---------------------------------------


    POTLOK:  cpu time    0.0757: real time    0.0762
    SETDIJ:  cpu time    0.0031: real time    0.0031
     EDDAV:  cpu time    0.2211: real time    0.2220
       DOS:  cpu time    0.0002: real time    0.0002
    CHARGE:  cpu time    0.0456: real time    0.0461
    MIXING:  cpu time    0.0047: real time    0.0047
    --------------------------------------------
      LOOP:  cpu time    0.3505: real time    0.3525

 eigenvalue-minimisations  :   304
 total energy-change (2. order) : 0.8359392E-01  (-0.8374623E-04)
 number of electron       5.9999966 magnetization       6.0323898
 augmentation part        0.8530854 magnetization       0.8854786

 Broyden mixing:
  rms(total) = 0.89175E-02    rms(broyden)= 0.89175E-02
  rms(prec ) = 0.98618E-02
  weight for this iteration     100.00

 eigenvalues of (default mixing * dielectric matrix)
  average eigenvalue GAMMA=   1.4970
  5.2708  3.1884  3.1884  2.9615  1.0598  1.0598  1.1342  1.1342  0.9400  0.8622
  0.8622  0.7369  0.7369  0.6387  0.5932  0.5411  0.5411

 Free energy of the ion-electron system (eV)
  ---------------------------------------------------
  alpha Z        PSCENC =         0.21595044
  Ewald energy   TEWEN  =       -49.02777601
  -Hartree energ DENC   =      -146.21539484
  -exchange      EXHF   =         0.00000000
  -V(xc)+E(xc)   XCENC  =       -47.34577383
  PAW double counting   =       262.33422150     -203.30077595
  entropy T*S    EENTRO =        -0.00000000
  eigenvalues    EBANDS =       -25.69541559
  atomic energy  EATOM  =       204.58039518
  Solvation  Ediel_sol  =         0.00000000
  ---------------------------------------------------
  free energy    TOTEN  =        -4.45456910 eV

  energy without entropy =       -4.45456910  energy(sigma->0) =       -4.45456910


--------------------------------------------------------------------------------------------------------




--------------------------------------- Iteration      1(  23)  ---------------------------------------


    POTLOK:  cpu time    0.0764: real time    0.0767
    SETDIJ:  cpu time    0.0030: real time    0.0030
     EDDAV:  cpu time    0.2381: real time    0.2389
       DOS:  cpu time    0.0002: real time    0.0002
    CHARGE:  cpu time    0.0448: real time    0.0457
    MIXING:  cpu time    0.0052: real time    0.0052
    --------------------------------------------
      LOOP:  cpu time    0.3677: real time    0.3698

 eigenvalue-minimisations  :   336
 total energy-change (2. order) :-0.1864991E-01  (-0.3011259E-05)
 number of electron       5.9999966 magnetization       6.0263913
 augmentation part        0.8532963 magnetization       0.8796910

 Broyden mixing:
  rms(total) = 0.79329E-02    rms(broyden)= 0.79328E-02
  rms(prec ) = 0.87578E-02
  weight for this iteration     100.00

 eigenvalues of (default mixing * dielectric matrix)
  average eigenvalue GAMMA=   1.5277
  5.8060  3.6068  3.6068  2.5669  1.0602  1.0602  1.3601  1.1319  1.1319  0.8008
  0.8008  0.8296  0.8296  0.6652  0.5533  0.5533  0.5512  0.5840

 Free energy of the ion-electron system (eV)
  ---------------------------------------------------
  alpha Z        PSCENC =         0.21595044
  Ewald energy   TEWEN  =       -49.02777601
  -Hartree energ DENC   =      -146.19004329
  -exchange      EXHF   =         0.00000000
  -V(xc)+E(xc)   XCENC  =       -47.36794713
  PAW double counting   =       262.27880123     -203.24729703
  entropy T*S    EENTRO =        -0.00000000
  eigenvalues    EBANDS =       -25.71530238
  atomic energy  EATOM  =       204.58039518
  Solvation  Ediel_sol  =         0.00000000
  ---------------------------------------------------
  free energy    TOTEN  =        -4.47321901 eV

  energy without entropy =       -4.47321901  energy(sigma->0) =       -4.47321901


--------------------------------------------------------------------------------------------------------




--------------------------------------- Iteration      1(  24)  ---------------------------------------


    POTLOK:  cpu time    0.0758: real time    0.0762
    SETDIJ:  cpu time    0.0030: real time    0.0030
     EDDAV:  cpu time    0.2206: real time    0.2220
       DOS:  cpu time    0.0003: real time    0.0003
    CHARGE:  cpu time    0.0449: real time    0.0455
    MIXING:  cpu time    0.0052: real time    0.0052
    --------------------------------------------
      LOOP:  cpu time    0.3498: real time    0.3522

 eigenvalue-minimisations  :   304
 total energy-change (2. order) :-0.1854863E-01  (-0.2440271E-05)
 number of electron       5.9999966 magnetization       6.0105326
 augmentation part        0.8534959 magnetization       0.8640319

 Broyden mixing:
  rms(total) = 0.67753E-02    rms(broyden)= 0.67753E-02
  rms(prec ) = 0.75022E-02
  weight for this iteration     100.00

 eigenvalues of (default mixing * dielectric matrix)
  average eigenvalue GAMMA=   1.6029
  6.0694  3.9070  3.9070  2.4770  2.4770  1.0600  1.0600  1.1168  1.1168  1.0723
  0.8225  0.8225  0.8081  0.8081  0.5476  0.5476  0.6356  0.6284  0.5715

 Free energy of the ion-electron system (eV)
  ---------------------------------------------------
  alpha Z        PSCENC =         0.21595044
  Ewald energy   TEWEN  =       -49.02777601
  -Hartree energ DENC   =      -146.15258052
  -exchange      EXHF   =         0.00000000
  -V(xc)+E(xc)   XCENC  =       -47.39319875
  PAW double counting   =       262.07861077     -203.04841569
  entropy T*S    EENTRO =        -0.00000000
  eigenvalues    EBANDS =       -25.74475305
  atomic energy  EATOM  =       204.58039518
  Solvation  Ediel_sol  =         0.00000000
  ---------------------------------------------------
  free energy    TOTEN  =        -4.49176764 eV

  energy without entropy =       -4.49176764  energy(sigma->0) =       -4.49176764


--------------------------------------------------------------------------------------------------------




--------------------------------------- Iteration      1(  25)  ---------------------------------------


    POTLOK:  cpu time    0.0762: real time    0.0767
    SETDIJ:  cpu time    0.0032: real time    0.0032
     EDDAV:  cpu time    0.1907: real time    0.1914
       DOS:  cpu time    0.0002: real time    0.0002
    CHARGE:  cpu time    0.0451: real time    0.0463
    MIXING:  cpu time    0.0055: real time    0.0056
    --------------------------------------------
      LOOP:  cpu time    0.3210: real time    0.3234

 eigenvalue-minimisations  :   256
 total energy-change (2. order) :-0.3820194E-01  (-0.2285566E-04)
 number of electron       5.9999966 magnetization       6.0044436
 augmentation part        0.8543339 magnetization       0.8587809

 Broyden mixing:
  rms(total) = 0.24917E-02    rms(broyden)= 0.24910E-02
  rms(prec ) = 0.27215E-02
  weight for this iteration     100.00

 eigenvalues of (default mixing * dielectric matrix)
  average eigenvalue GAMMA=   1.5604
  5.9680  3.9354  3.9354  2.5620  2.5620  1.0601  1.0601  1.1048  1.1048  1.0312
  0.8844  0.8844  0.7940  0.7940  0.6492  0.6139  0.5503  0.5503  0.5818  0.5818

 Free energy of the ion-electron system (eV)
  ---------------------------------------------------
  alpha Z        PSCENC =         0.21595044
  Ewald energy   TEWEN  =       -49.02777601
  -Hartree energ DENC   =      -146.04245069
  -exchange      EXHF   =         0.00000000
  -V(xc)+E(xc)   XCENC  =       -47.44862055
  PAW double counting   =       261.60162360     -202.57883743
  entropy T*S    EENTRO =        -0.00000000
  eigenvalues    EBANDS =       -25.83025411
  atomic energy  EATOM  =       204.58039518
  Solvation  Ediel_sol  =         0.00000000
  ---------------------------------------------------
  free energy    TOTEN  =        -4.52996958 eV

  energy without entropy =       -4.52996958  energy(sigma->0) =       -4.52996958


--------------------------------------------------------------------------------------------------------




--------------------------------------- Iteration      1(  26)  ---------------------------------------


    POTLOK:  cpu time    0.0758: real time    0.0763
    SETDIJ:  cpu time    0.0031: real time    0.0031
     EDDAV:  cpu time    0.2302: real time    0.2320
       DOS:  cpu time    0.0003: real time    0.0003
    CHARGE:  cpu time    0.0512: real time    0.0519
    MIXING:  cpu time    0.0061: real time    0.0064
    --------------------------------------------
      LOOP:  cpu time    0.3668: real time    0.3700

 eigenvalue-minimisations  :   320
 total energy-change (2. order) :-0.7101312E-02  (-0.2225721E-05)
 number of electron       5.9999966 magnetization       5.9990679
 augmentation part        0.8545744 magnetization       0.8536457

 Broyden mixing:
  rms(total) = 0.11846E-02    rms(broyden)= 0.11844E-02
  rms(prec ) = 0.13039E-02
  weight for this iteration     100.00

 eigenvalues of (default mixing * dielectric matrix)
  average eigenvalue GAMMA=   1.5872
  5.8773  4.0917  4.0917  2.6735  2.6735  1.0602  1.0602  1.3966  1.0856  1.0856
  1.0813  1.0813  0.7767  0.7767  0.7813  0.7813  0.6763  0.5479  0.5479  0.5753
  0.6095

 Free energy of the ion-electron system (eV)
  ---------------------------------------------------
  alpha Z        PSCENC =         0.21595044
  Ewald energy   TEWEN  =       -49.02777601
  -Hartree energ DENC   =      -146.01588409
  -exchange      EXHF   =         0.00000000
  -V(xc)+E(xc)   XCENC  =       -47.46179698
  PAW double counting   =       261.45060599     -202.43087176
  entropy T*S    EENTRO =        -0.00000000
  eigenvalues    EBANDS =       -25.84769366
  atomic energy  EATOM  =       204.58039518
  Solvation  Ediel_sol  =         0.00000000
  ---------------------------------------------------
  free energy    TOTEN  =        -4.53707089 eV

  energy without entropy =       -4.53707089  energy(sigma->0) =       -4.53707089


--------------------------------------------------------------------------------------------------------




--------------------------------------- Iteration      1(  27)  ---------------------------------------


    POTLOK:  cpu time    0.0786: real time    0.0790
    SETDIJ:  cpu time    0.0034: real time    0.0034
     EDDAV:  cpu time    0.2901: real time    0.2911
       DOS:  cpu time    0.0003: real time    0.0003
    CHARGE:  cpu time    0.0537: real time    0.0558
    MIXING:  cpu time    0.0070: real time    0.0070
    --------------------------------------------
      LOOP:  cpu time    0.4331: real time    0.4367

 eigenvalue-minimisations  :   400
 total energy-change (2. order) :-0.2766946E-02  (-0.1616659E-05)
 number of electron       5.9999966 magnetization       5.9953489
 augmentation part        0.8547979 magnetization       0.8501506

 Broyden mixing:
  rms(total) = 0.22628E-03    rms(broyden)= 0.22561E-03
  rms(prec ) = 0.24045E-03
  weight for this iteration     100.00

 eigenvalues of (default mixing * dielectric matrix)
  average eigenvalue GAMMA=   1.6990
  5.7692  5.7692  3.3275  3.3275  3.2847  2.2946  1.0602  1.0602  1.4146  1.0901
  1.0901  1.0453  0.8007  0.8007  0.8258  0.8258  0.6883  0.5487  0.5487  0.6175
  0.6175  0.5719

 Free energy of the ion-electron system (eV)
  ---------------------------------------------------
  alpha Z        PSCENC =         0.21595044
  Ewald energy   TEWEN  =       -49.02777601
  -Hartree energ DENC   =      -145.99166434
  -exchange      EXHF   =         0.00000000
  -V(xc)+E(xc)   XCENC  =       -47.46993268
  PAW double counting   =       261.31969445     -202.30273207
  entropy T*S    EENTRO =        -0.00000026
  eigenvalues    EBANDS =       -25.86377255
  atomic energy  EATOM  =       204.58039518
  Solvation  Ediel_sol  =         0.00000000
  ---------------------------------------------------
  free energy    TOTEN  =        -4.53983784 eV

  energy without entropy =       -4.53983758  energy(sigma->0) =       -4.53983771


--------------------------------------------------------------------------------------------------------




--------------------------------------- Iteration      1(  28)  ---------------------------------------


    POTLOK:  cpu time    0.0763: real time    0.0767
    SETDIJ:  cpu time    0.0031: real time    0.0031
     EDDAV:  cpu time    0.2989: real time    0.2999
       DOS:  cpu time    0.0003: real time    0.0003
    CHARGE:  cpu time    0.0532: real time    0.0544
    MIXING:  cpu time    0.0066: real time    0.0067
    --------------------------------------------
      LOOP:  cpu time    0.4383: real time    0.4410

 eigenvalue-minimisations  :   432
 total energy-change (2. order) : 0.1999690E-04  (-0.1415034E-05)
 number of electron       5.9999966 magnetization       6.0000304
 augmentation part        0.8550066 magnetization       0.8550424

 Broyden mixing:
  rms(total) = 0.11274E-02    rms(broyden)= 0.11273E-02
  rms(prec ) = 0.12445E-02
  weight for this iteration     100.00

 eigenvalues of (default mixing * dielectric matrix)
  average eigenvalue GAMMA=   1.6658
  5.9723  4.6560  4.6560  2.9323  2.9323  2.7898  1.0602  1.0602  1.4109  1.0873
  1.0873  1.1434  0.7968  0.7968  0.8197  0.8197  0.7060  0.5477  0.5477  0.6501
  0.6501  0.5876  0.6034

 Free energy of the ion-electron system (eV)
  ---------------------------------------------------
  alpha Z        PSCENC =         0.21595044
  Ewald energy   TEWEN  =       -49.02777601
  -Hartree energ DENC   =      -145.97222239
  -exchange      EXHF   =         0.00000000
  -V(xc)+E(xc)   XCENC  =       -47.47379677
  PAW double counting   =       261.26666085     -202.25070197
  entropy T*S    EENTRO =        -0.00000139
  eigenvalues    EBANDS =       -25.87832579
  atomic energy  EATOM  =       204.58039518
  Solvation  Ediel_sol  =         0.00000000
  ---------------------------------------------------
  free energy    TOTEN  =        -4.53981784 eV

  energy without entropy =       -4.53981645  energy(sigma->0) =       -4.53981715


--------------------------------------------------------------------------------------------------------




--------------------------------------- Iteration      1(  29)  ---------------------------------------


    POTLOK:  cpu time    0.0757: real time    0.0761
    SETDIJ:  cpu time    0.0030: real time    0.0030
     EDDAV:  cpu time    0.2866: real time    0.2879
       DOS:  cpu time    0.0007: real time    0.0007
    CHARGE:  cpu time    0.0510: real time    0.0519
    MIXING:  cpu time    0.0064: real time    0.0064
    --------------------------------------------
[...]




--------------------------------------- Iteration      1(  35)  ---------------------------------------


    POTLOK:  cpu time    0.0768: real time    0.0772
    SETDIJ:  cpu time    0.0031: real time    0.0031
     EDDAV:  cpu time    0.2482: real time    0.2491
       DOS:  cpu time    0.0003: real time    0.0003
    --------------------------------------------
      LOOP:  cpu time    0.3284: real time    0.3296

 eigenvalue-minimisations  :   352
 total energy-change (2. order) :-0.2001017E-06  (-0.2519245E-09)
 number of electron       5.9999966 magnetization       5.9999473
 augmentation part        0.8547969 magnetization       0.8547478

 Free energy of the ion-electron system (eV)
  ---------------------------------------------------
  alpha Z        PSCENC =         0.21595044
  Ewald energy   TEWEN  =       -49.02777601
  -Hartree energ DENC   =      -145.99116895
  -exchange      EXHF   =         0.00000000
  -V(xc)+E(xc)   XCENC  =       -47.46941649
  PAW double counting   =       261.35399637     -202.33605614
  entropy T*S    EENTRO =        -0.00000019
  eigenvalues    EBANDS =       -25.86584524
  atomic energy  EATOM  =       204.58039518
  Solvation  Ediel_sol  =         0.00000000
  ---------------------------------------------------
  free energy    TOTEN  =        -4.53992103 eV

  energy without entropy =       -4.53992084  energy(sigma->0) =       -4.53992093


--------------------------------------------------------------------------------------------------------




 average (electrostatic) potential at core
  the test charge radii are     1.1823
  (the norm of the test charge is              1.0000)
       1 -47.7534
 
 
 
 E-fermi :  -3.2553     XC(G=0):  -0.2586     alpha+bet : -0.0687


 spin component 1

 k-point     1 :       0.1250    0.1250    0.1250
  band No.  band energies     occupation 
      1      -5.7308      1.00000
      2      -4.0285      1.00000
      3      -4.0285      1.00000
      4      -4.0260      1.00000
      5      -4.0260      1.00000
      6      -4.0260      1.00000
      7      -1.3673      0.00000
      8      -1.3672      0.00000
      9      -1.3672      0.00000
     10      -0.1643      0.00000
     11       0.4257      0.00000
     12       0.4564      0.00000
     13       0.4564      0.00000
     14       0.7315      0.00000
     15       0.7315      0.00000
     16       0.7998      0.00000

 k-point     2 :       0.3750    0.1250    0.1250
  band No.  band energies     occupation 
      1      -5.7308      1.00000
      2      -4.0286      1.00000
      3      -4.0285      1.00000
      4      -4.0260      1.00000
      5      -4.0259      1.00000
      6      -4.0259      1.00000
      7      -1.3705      0.00000
      8      -1.3670      0.00000
      9      -1.3669      0.00000
     10      -0.0928      0.00000
     11       0.2298      0.00000
     12       0.5161      0.00000
     13       0.5327      0.00000
     14       0.6359      0.00000
     15       0.6895      0.00000
     16       0.8319      0.00000

 k-point     3 :       0.3750    0.3750    0.1250
  band No.  band energies     occupation 
      1      -5.7308      1.00000
      2      -4.0286      1.00000
      3      -4.0286      1.00000
      4      -4.0260      1.00000
      5      -4.0260      1.00000
      6      -4.0260      1.00000
      7      -1.3702      0.00000
      8      -1.3701      0.00000
      9      -1.3667      0.00000
     10      -0.0204      0.00000
     11       0.2706      0.00000
     12       0.3518      0.00000
     13       0.4655      0.00000
     14       0.5961      0.00000
     15       0.7141      0.00000
     16       0.7425      0.00000

 k-point     4 :       0.3750    0.3750    0.3750
  band No.  band energies     occupation 
      1      -5.7308      1.00000
      2      -4.0286      1.00000
      3      -4.0286      1.00000
      4      -4.0260      1.00000
      5      -4.0259      1.00000
      6      -4.0259      1.00000
      7      -1.3699      0.00000
      8      -1.3698      0.00000
      9      -1.3698      0.00000
     10       0.0554      0.00000
     11       0.3271      0.00000
     12       0.4066      0.00000
     13       0.4066      0.00000
     14       0.5388      0.00000
     15       0.5388      0.00000
     16       0.5672      0.00000

 spin component 2

 k-point     1 :       0.1250    0.1250    0.1250
  band No.  band energies     occupation 
      1      -2.5251      0.00000
      2      -0.7457      0.00000
      3      -0.7457      0.00000
      4      -0.7457      0.00000
      5      -0.7400      0.00000
      6      -0.7400      0.00000
      7       0.1312      0.00000
      8       0.5390      0.00000
      9       0.5390      0.00000
     10       0.6463      0.00000
     11       0.8679      0.00000
     12       0.8679      0.00000
     13       0.8713      0.00000
     14       1.0416      0.00000
     15       1.0416      0.00000
     16       1.1676      0.00000

 k-point     2 :       0.3750    0.1250    0.1250
  band No.  band energies     occupation 
      1      -2.5251      0.00000
      2      -0.7458      0.00000
      3      -0.7457      0.00000
      4      -0.7456      0.00000
      5      -0.7400      0.00000
      6      -0.7398      0.00000
      7       0.1932      0.00000
      8       0.3619      0.00000
      9       0.6143      0.00000
     10       0.6852      0.00000
     11       0.7835      0.00000
     12       0.7988      0.00000
     13       0.9581      0.00000
     14       1.0280      0.00000
     15       1.0546      0.00000
     16       1.1321      0.00000

 k-point     3 :       0.3750    0.3750    0.1250
  band No.  band energies     occupation 
      1      -2.5250      0.00000
      2      -0.7458      0.00000
      3      -0.7458      0.00000
      4      -0.7457      0.00000
      5      -0.7399      0.00000
      6      -0.7398      0.00000
      7       0.2638      0.00000
      8       0.3759      0.00000
      9       0.4830      0.00000
     10       0.5806      0.00000
     11       0.7680      0.00000
     12       0.8507      0.00000
     13       0.8748      0.00000
     14       1.0227      0.00000
     15       1.1370      0.00000
     16       1.1983      0.00000

 k-point     4 :       0.3750    0.3750    0.3750
  band No.  band energies     occupation 
      1      -2.5250      0.00000
      2      -0.7458      0.00000
      3      -0.7457      0.00000
      4      -0.7457      0.00000
      5      -0.7398      0.00000
      6      -0.7398      0.00000
      7       0.3370      0.00000
      8       0.4536      0.00000
      9       0.4536      0.00000
     10       0.5541      0.00000
     11       0.6386      0.00000
     12       0.6386      0.00000
     13       0.7858      0.00000
     14       0.9074      0.00000
     15       1.3145      0.00000
     16       1.3145      0.00000


--------------------------------------------------------------------------------------------------------


 soft charge-density along one line, spin component           1
         0         1         2         3         4         5         6         7         8         9
 total charge-density along one line
 
 soft charge-density along one line, spin component           2
         0         1         2         3         4         5         6         7         8         9
 total charge-density along one line
 
 pseudopotential strength for first ion, spin component:           1
 -8.987   0.000  -0.000  -0.000  -0.000 -10.349   0.000  -0.000
  0.000  -8.987   0.000   0.000   0.000   0.000 -10.349   0.000
 -0.000   0.000  -8.987   0.000   0.000  -0.000   0.000 -10.349
 -0.000   0.000   0.000  -8.987   0.000  -0.000   0.000   0.000
 -0.000   0.000   0.000   0.000  -8.987  -0.000   0.000   0.000
-10.349   0.000  -0.000  -0.000  -0.000 -11.901   0.000  -0.000
  0.000 -10.349   0.000   0.000   0.000   0.000 -11.901   0.000
 -0.000   0.000 -10.349   0.000   0.000  -0.000   0.000 -11.901
 -0.000   0.000   0.000 -10.349   0.000  -0.000   0.000   0.000
 -0.000   0.000   0.000   0.000 -10.349  -0.000   0.000   0.000
 -0.000   0.000   0.000  -0.000   0.000  -0.000   0.000   0.000
 -0.000   0.000   0.000  -0.000   0.000  -0.000   0.000   0.000
  0.000  -0.000   0.000   0.000   0.000   0.000  -0.000   0.000
  0.000   0.000  -0.000  -0.000   0.000   0.000   0.000  -0.000
 -0.000   0.000  -0.000  -0.000  -0.000  -0.000   0.000  -0.000
  0.000  -0.000   0.000   0.000   0.000  -0.000  -0.000   0.000
  0.000   0.000  -0.000  -0.000   0.000   0.000   0.000  -0.000
 -0.000   0.000  -0.000  -0.000  -0.000  -0.000   0.000  -0.000
 pseudopotential strength for first ion, spin component:           2
 -8.828  -0.000   0.000  -0.000  -0.000 -10.144  -0.000   0.000
 -0.000  -8.828  -0.000   0.000  -0.000  -0.000 -10.144  -0.000
  0.000  -0.000  -8.828  -0.000   0.000   0.000  -0.000 -10.144
 -0.000   0.000  -0.000  -8.828   0.000  -0.000   0.000  -0.000
 -0.000  -0.000   0.000   0.000  -8.828  -0.000  -0.000   0.000
-10.144  -0.000   0.000  -0.000  -0.000 -11.640  -0.000   0.000
 -0.000 -10.144  -0.000   0.000  -0.000  -0.000 -11.640  -0.000
  0.000  -0.000 -10.144  -0.000   0.000   0.000  -0.000 -11.640
 -0.000   0.000  -0.000 -10.144   0.000  -0.000   0.000  -0.000
 -0.000  -0.000   0.000   0.000 -10.144  -0.000  -0.000   0.000
 -0.000   0.000  -0.000   0.000  -0.000  -0.000   0.000  -0.000
 -0.000   0.000  -0.000   0.000  -0.000  -0.000   0.000  -0.000
  0.000  -0.000   0.000   0.000   0.000  -0.000  -0.000   0.000
  0.000   0.000  -0.000  -0.000   0.000   0.000   0.000  -0.000
 -0.000   0.000  -0.000  -0.000  -0.000  -0.000   0.000  -0.000
 -0.000  -0.000   0.000   0.000   0.000  -0.000  -0.000   0.000
  0.000   0.000  -0.000  -0.000   0.000   0.000   0.000  -0.000
 -0.000   0.000  -0.000  -0.000  -0.000  -0.000   0.000  -0.000
 total augmentation occupancy for first ion, spin component:           1
  1.317   0.000   0.000   0.000   0.000  -0.141   0.000   0.000  -0.000  -0.000   0.000   0.000   0.000   0.000   0.000   0.000
  0.000   1.317  -0.000   0.000  -0.000  -0.000  -0.141   0.000   0.000   0.000  -0.000   0.000   0.000   0.000   0.000   0.000
  0.000  -0.000   1.339  -0.000  -0.000  -0.000  -0.000  -0.151   0.000   0.000  -0.000  -0.000   0.000   0.000   0.000   0.000
  0.000   0.000  -0.000   1.317   0.000   0.000   0.000   0.000  -0.141  -0.000   0.000   0.000   0.000   0.000   0.000   0.000
  0.000   0.000   0.000  -0.000   1.339  -0.000  -0.000   0.000  -0.000  -0.151   0.000  -0.000   0.000   0.000   0.000   0.000
 -0.141  -0.000  -0.000   0.000  -0.000   0.015   0.000   0.000   0.000  -0.000  -0.000   0.000   0.000   0.000   0.000   0.000
  0.000  -0.141  -0.000   0.000  -0.000   0.000   0.015   0.000   0.000   0.000  -0.000   0.000   0.000   0.000   0.000   0.000
  0.000   0.000  -0.151   0.000   0.000  -0.000   0.000   0.017   0.000   0.000   0.000   0.000   0.000   0.000   0.000   0.000
 -0.000   0.000   0.000  -0.141   0.000   0.000   0.000  -0.000   0.015   0.000   0.000   0.000   0.000   0.000   0.000   0.000
  0.000   0.000   0.000  -0.000  -0.151   0.000   0.000  -0.000  -0.000   0.017  -0.000  -0.000   0.000   0.000   0.000   0.000
 -0.000  -0.000  -0.000  -0.000  -0.000   0.000  -0.000   0.000   0.000  -0.000   1.101  -0.008   0.000   0.000   0.000   0.000
  0.000   0.000   0.000   0.000  -0.000   0.000   0.000   0.000   0.000  -0.000  -0.008   0.000   0.000   0.000   0.000   0.000
  0.000   0.000   0.000   0.000   0.000   0.000   0.000   0.000   0.000   0.000   0.000   0.000   0.000  -0.000   0.000  -0.000
  0.000   0.000   0.000   0.000   0.000   0.000   0.000   0.000   0.000   0.000   0.000   0.000  -0.000   0.000   0.000   0.000
  0.000   0.000   0.000   0.000   0.000   0.000   0.000   0.000   0.000   0.000   0.000   0.000   0.000   0.000   0.000   0.000
  0.000   0.000   0.000   0.000   0.000   0.000   0.000   0.000   0.000   0.000   0.000   0.000  -0.000   0.000   0.000   0.000
  0.000   0.000   0.000   0.000   0.000   0.000   0.000   0.000   0.000   0.000   0.000   0.000   0.000  -0.000  -0.000  -0.000
  0.000   0.000   0.000   0.000   0.000   0.000   0.000   0.000   0.000   0.000   0.000   0.000   0.000  -0.000  -0.000   0.000
 total augmentation occupancy for first ion, spin component:           2
  1.317   0.000   0.000   0.000   0.000  -0.141   0.000  -0.000   0.000   0.000  -0.000   0.000   0.000   0.000   0.000   0.000
  0.000   1.317   0.000   0.000   0.000  -0.000  -0.141  -0.000  -0.000   0.000  -0.000  -0.000   0.000   0.000   0.000   0.000
  0.000   0.000   1.339   0.000  -0.000  -0.000  -0.000  -0.151  -0.000   0.000  -0.000   0.000   0.000   0.000   0.000   0.000
  0.000   0.000   0.000   1.317  -0.000  -0.000   0.000   0.000  -0.141  -0.000   0.000  -0.000   0.000   0.000   0.000   0.000
 -0.000  -0.000   0.000  -0.000   1.339  -0.000  -0.000   0.000   0.000  -0.151   0.000  -0.000   0.000   0.000   0.000   0.000
 -0.141  -0.000  -0.000  -0.000  -0.000   0.015  -0.000   0.000   0.000   0.000   0.000   0.000   0.000   0.000   0.000   0.000
  0.000  -0.141  -0.000   0.000   0.000  -0.000   0.015   0.000   0.000  -0.000   0.000   0.000   0.000   0.000   0.000   0.000
  0.000  -0.000  -0.151   0.000   0.000   0.000  -0.000   0.017   0.000   0.000   0.000   0.000   0.000   0.000   0.000   0.000
  0.000  -0.000  -0.000  -0.141   0.000   0.000   0.000  -0.000   0.015  -0.000   0.000   0.000   0.000   0.000   0.000   0.000
  0.000  -0.000   0.000   0.000  -0.151   0.000   0.000  -0.000  -0.000   0.017  -0.000   0.000   0.000   0.000   0.000   0.000
 -0.000  -0.000  -0.000   0.000  -0.000   0.000   0.000   0.000   0.000  -0.000   1.101  -0.008   0.000   0.000   0.000   0.000
  0.000  -0.000   0.000  -0.000  -0.000   0.000   0.000   0.000   0.000   0.000  -0.008   0.000   0.000   0.000   0.000   0.000
  0.000   0.000   0.000   0.000   0.000   0.000   0.000   0.000   0.000   0.000   0.000   0.000   0.000  -0.000  -0.000  -0.000
  0.000   0.000   0.000   0.000   0.000   0.000   0.000   0.000   0.000   0.000   0.000   0.000  -0.000   0.000  -0.000   0.000
  0.000   0.000   0.000   0.000   0.000   0.000   0.000   0.000   0.000   0.000   0.000   0.000  -0.000   0.000   0.000   0.000
  0.000   0.000   0.000   0.000   0.000   0.000   0.000   0.000   0.000   0.000   0.000   0.000  -0.000  -0.000   0.000   0.000
  0.000   0.000   0.000   0.000   0.000   0.000   0.000   0.000   0.000   0.000   0.000   0.000  -0.000  -0.000  -0.000   0.000
  0.000   0.000   0.000   0.000   0.000   0.000   0.000   0.000   0.000   0.000   0.000   0.000   0.000   0.000  -0.000  -0.000


------------------------ aborting loop because EDIFF is reached ----------------------------------------


    CHARGE:  cpu time    0.0522: real time    0.0532
    FORLOC:  cpu time    0.0011: real time    0.0011
    FORNL :  cpu time    0.0161: real time    0.0162
    STRESS:  cpu time    0.1573: real time    0.1579
    FORCOR:  cpu time    0.0715: real time    0.0717
    FORHAR:  cpu time    0.0071: real time    0.0071
    MIXING:  cpu time    0.0084: real time    0.0084
    OFIELD:  cpu time    0.0000: real time    0.0001

  FORCE on cell =-STRESS in cart. coord.  units (eV):
  Direction    XX          YY          ZZ          XY          YZ          ZX
  --------------------------------------------------------------------------------------
  Alpha Z     0.21595     0.21595     0.21595
  Ewald     -16.34259   -16.34259   -16.34259     0.00000    -0.00000    -0.00000
  Hartree    48.66400    48.66400    48.66400    -0.00000    -0.00000    -0.00000
  E(xc)     -25.16840   -25.16840   -25.16840    -0.00000    -0.00000    -0.00000
  Local     -70.14648   -70.14648   -70.14648     0.00000     0.00000     0.00000
  n-local   -29.77559   -29.77528   -29.77536    -0.00037     0.00053     0.00004
  augment     5.72327     5.72327     5.72327    -0.00000     0.00000     0.00000
  Kinetic    86.64502    86.64526    86.64518    -0.00030     0.00043     0.00003
  Fock        0.00000     0.00000     0.00000     0.00000     0.00000     0.00000
  -------------------------------------------------------------------------------------
  Total      -0.18451    -0.18451    -0.18451    -0.00000    -0.00000    -0.00000
  in kB      -0.08759    -0.08759    -0.08759    -0.00000    -0.00000    -0.00000
  external pressure =       -0.09 kB  Pullay stress =        0.00 kB


 VOLUME and BASIS-vectors are now :
 -----------------------------------------------------------------------------
  energy-cutoff  :      223.06
  volume of cell :     3375.00
      direct lattice vectors                 reciprocal lattice vectors
    15.000000000  0.000000000  0.000000000     0.066666667  0.000000000  0.000000000
     0.000000000 15.000000000  0.000000000     0.000000000  0.066666667  0.000000000
     0.000000000  0.000000000 15.000000000     0.000000000  0.000000000  0.066666667

  length of vectors
    15.000000000 15.000000000 15.000000000     0.066666667  0.066666667  0.066666667


 FORCES acting on ions
    electron-ion (+dipol)            ewald-force                    non-local-force                 convergence-correction
 -----------------------------------------------------------------------------------------------
   0.114E-12 0.277E-12 0.616E-12   -.293E-17 0.851E-17 -.135E-16   -.505E-28 -.600E-28 -.536E-28   -.254E-13 -.271E-13 -.277E-13
 -----------------------------------------------------------------------------------------------
   0.114E-12 0.277E-12 0.616E-12   -.293E-17 0.851E-17 -.135E-16   -.505E-28 -.600E-28 -.536E-28   -.254E-13 -.271E-13 -.277E-13
 
 
 POSITION                                       TOTAL-FORCE (eV/Angst)
 -----------------------------------------------------------------------------------
      7.50000      7.50000      7.50000         0.000000      0.000000      0.000000
 -----------------------------------------------------------------------------------
    total drift:                                0.000000      0.000000      0.000000


--------------------------------------------------------------------------------------------------------



  FREE ENERGIE OF THE ION-ELECTRON SYSTEM (eV)
  ---------------------------------------------------
  free  energy   TOTEN  =        -4.53992103 eV

  energy  without entropy=       -4.53992084  energy(sigma->0) =       -4.53992093
 


--------------------------------------------------------------------------------------------------------


    POTLOK:  cpu time    0.0822: real time    0.0827


--------------------------------------------------------------------------------------------------------




--------------------------------------------------------------------------------------------------------


  
 reached required accuracy - stopping structural energy minimisation
 writing wavefunctions
     LOOP+:  cpu time   15.2941: real time   15.4593
    4ORBIT:  cpu time    0.0000: real time    0.0000

 total amount of memory used by VASP MPI-rank0    72716. kBytes
=======================================================================

   base      :      30000. kBytes
   nonl-proj :      15126. kBytes
   fftplans  :       3726. kBytes
   grid      :      20559. kBytes
   one-center:         31. kBytes
   wavefun   :       3274. kBytes
 
  
  
 General timing and accounting informations for this job:
 ========================================================
  
                  Total CPU time used (sec):       18.471
                            User time (sec):       16.786
                          System time (sec):        1.685
                         Elapsed time (sec):       19.465
  
                   Maximum memory used (kb):      238904.
                   Average memory used (kb):           0.
  
                          Minor page faults:        64375
                          Major page faults:           34
                 Voluntary context switches:        11273
