 vasp.5.4.4.18Apr17-6-g9f103f2a35 (build Jan 21 2021 13:12:21) complex          
  
 executed on             LinuxIFC date 2022.01.08  23:30:20
 running on   60 total cores
 distrk:  each k-point on   60 cores,    1 groups
 distr:  one band on NCORES_PER_BAND=  15 cores,    4 groups


--------------------------------------------------------------------------------------------------------


 INCAR:
 POTCAR:   PAW_PBE Ni 06Sep2000                   
 POTCAR:    PAW_PBE Nb_sv 25May2007               
 POTCAR:    PAW_PBE W 08Apr2002                   
 POTCAR:   PAW_PBE Ni 06Sep2000                   
   VRHFIN =Ni:                                                                  
   LEXCH  = PE                                                                  
   EATOM  =  1077.9025 eV,   79.2236 Ry                                         
                                                                                
   TITEL  = PAW_PBE Ni 06Sep2000                                                
   LULTRA =        F    use ultrasoft PP ?                                      
   IUNSCR =        1    unscreen: 0-lin 1-nonlin 2-no                           
   RPACOR =    2.000    partial core radius                                     
   POMASS =   58.690; ZVAL   =   10.000    mass and valenz                      
   RCORE  =    2.300    outmost cutoff radius                                   
   RWIGS  =    2.430; RWIGS  =    1.286    wigner-seitz radius (au A)           
   ENMAX  =  269.533; ENMIN  =  202.150 eV                                      
   RCLOC  =    1.681    cutoff for local pot                                    
   LCOR   =        T    correct aug charges                                     
   LPAW   =        T    paw PP                                                  
   EAUG   =  544.565                                                            
   DEXC   =    -.009                                                            
   RMAX   =    2.808    core radius for proj-oper                               
   RAUG   =    1.300    factor for augmentation sphere                          
   RDEP   =    2.390    radius for radial grids                                 
   QCUT   =   -4.451; QGAM   =    8.902    optimization parameters              
                                                                                
   Description                                                                  
     l     E      TYP  RCUT    TYP  RCUT                                        
     2   .000     23  2.300                                                     
     2   .000     23  2.300                                                     
     0   .000     23  2.300                                                     
     0   .000     23  2.300                                                     
     1  -.200     23  2.300                                                     
     1   .000     23  2.300                                                     
     3   .000      7   .000                                                     
  local pseudopotential read in
  partial core-charges read in
  atomic valenz-charges read in
  non local Contribution for L=           2  read in
    real space projection operators read in
  non local Contribution for L=           2  read in
    real space projection operators read in
  non local Contribution for L=           0  read in
    real space projection operators read in
  non local Contribution for L=           0  read in
    real space projection operators read in
  non local Contribution for L=           1  read in
    real space projection operators read in
  non local Contribution for L=           1  read in
    real space projection operators read in
    PAW grid and wavefunctions read in
 
   number of l-projection  operators is LMAX  =           6
   number of lm-projection operators is LMMAX =          18
 
 POTCAR:    PAW_PBE Nb_sv 25May2007               
   VRHFIN =Nb: 4p5s4d                                                           
   LEXCH  = PE                                                                  
   EATOM  =  1555.1913 eV,  114.3033 Ry                                         
                                                                                
   TITEL  = PAW_PBE Nb_sv 25May2007                                             
   LULTRA =        F    use ultrasoft PP ?                                      
   IUNSCR =        1    unscreen: 0-lin 1-nonlin 2-no                           
   RPACOR =    1.800    partial core radius                                     
   POMASS =   92.910; ZVAL   =   13.000    mass and valenz                      
   RCORE  =    2.400    outmost cutoff radius                                   
   RWIGS  =    2.400; RWIGS  =    1.270    wigner-seitz radius (au A)           
   ENMAX  =  293.235; ENMIN  =  219.927 eV                                      
   ICORE  =        3    local potential                                         
   LCOR   =        T    correct aug charges                                     
   LPAW   =        T    paw PP                                                  
   EAUG   =  455.659                                                            
   DEXC   =    0.000                                                            
   RMAX   =    2.456    core radius for proj-oper                               
   RAUG   =    1.300    factor for augmentation sphere                          
   RDEP   =    2.451    radius for radial grids                                 
   RDEPT  =    1.956    core radius for aug-charge                              
                                                                                
   Atomic configuration                                                         
   11 entries                                                                   
     n  l   j            E        occ.                                          
     1  0  0.50    -18805.2457   2.0000                                         
     2  0  0.50     -2630.2869   2.0000                                         
     2  1  1.50     -2348.4046   6.0000                                         
     3  0  0.50      -438.8757   2.0000                                         
     3  1  1.50      -346.7588   6.0000                                         
     3  2  2.50      -196.2560  10.0000                                         
     4  0  0.50       -58.3859   2.0000                                         
     5  0  0.50        -3.9816   1.0000                                         
     4  1  1.50       -34.5141   6.0000                                         
     4  2  2.50        -3.0408   4.0000                                         
     4  3  2.50        -1.3606   0.0000                                         
   Description                                                                  
     l       E           TYP  RCUT    TYP  RCUT                                 
     0    -58.3859094     23  2.200                                             
     0     -3.9816262     23  2.200                                             
     1    -34.5140738     23  2.200                                             
     1     13.6058260     23  2.200                                             
     2     -3.0408010     23  2.200                                             
     2     -0.1283038     23  2.200                                             
     3     -1.3605826     23  2.400                                             
  local pseudopotential read in
  partial core-charges read in
  partial kinetic energy density read in
  atomic valenz-charges read in
  non local Contribution for L=           0  read in
    real space projection operators read in
  non local Contribution for L=           0  read in
    real space projection operators read in
  non local Contribution for L=           1  read in
    real space projection operators read in
  non local Contribution for L=           1  read in
    real space projection operators read in
  non local Contribution for L=           2  read in
    real space projection operators read in
  non local Contribution for L=           2  read in
    real space projection operators read in
    PAW grid and wavefunctions read in
 
   number of l-projection  operators is LMAX  =           6
   number of lm-projection operators is LMMAX =          18
 
 POTCAR:    PAW_PBE W 08Apr2002                   
   VRHFIN =W : 6s5d                                                             
   LEXCH  = PE                                                                  
   EATOM  =   204.6103 eV,   15.0384 Ry                                         
                                                                                
   TITEL  = PAW_PBE W 08Apr2002                                                 
   LULTRA =        F    use ultrasoft PP ?                                      
   IUNSCR =        1    unscreen: 0-lin 1-nonlin 2-no                           
   RPACOR =    2.330    partial core radius                                     
   POMASS =  183.850; ZVAL   =    6.000    mass and valenz                      
   RCORE  =    2.750    outmost cutoff radius                                   
   RWIGS  =    2.750; RWIGS  =    1.455    wigner-seitz radius (au A)           
   ENMAX  =  223.057; ENMIN  =  167.293 eV                                      
   RCLOC  =    2.147    cutoff for local pot                                    
   LCOR   =        T    correct aug charges                                     
   LPAW   =        T    paw PP                                                  
   EAUG   =  373.438                                                            
   DEXC   =    0.000                                                            
   RMAX   =    2.801    core radius for proj-oper                               
   RAUG   =    1.300    factor for augmentation sphere                          
   RDEP   =    2.886    radius for radial grids                                 
   RDEPT  =    2.230    core radius for aug-charge                              
                                                                                
   Atomic configuration                                                         
   16 entries                                                                   
     n  l   j            E        occ.                                          
     1  0  0.50    -69465.5836   2.0000                                         
     2  0  0.50    -11986.2642   2.0000                                         
     2  1  1.50    -10479.8616   6.0000                                         
     3  0  0.50     -2759.0758   2.0000                                         
     3  1  1.50     -2313.1857   6.0000                                         
     3  2  2.50     -1801.1185  10.0000                                         
     4  0  0.50      -567.6791   2.0000                                         
     4  1  1.50      -421.4694   6.0000                                         
     4  2  2.50      -236.3473  10.0000                                         
     4  3  3.50       -31.2666  14.0000                                         
     5  0  0.50       -77.1085   2.0000                                         
     5  1  1.50       -41.3856   6.0000                                         
     5  2  2.50        -3.3185   5.0000                                         
     6  0  0.50        -5.1438   1.0000                                         
     6  1  0.50        -3.8096   0.0000                                         
     5  3  2.50        -1.3606   0.0000                                         
   Description                                                                  
     l       E           TYP  RCUT    TYP  RCUT                                 
     2     -3.3185288     23  2.500                                             
     2     -1.5965414     23  2.500                                             
     0     -5.1438054     23  2.500                                             
     0      4.9117504     23  2.500                                             
     1      2.7211652     23  2.750                                             
     1     27.2116520     23  2.750                                             
  local pseudopotential read in
  partial core-charges read in
  partial kinetic energy density read in
  atomic valenz-charges read in
  non local Contribution for L=           2  read in
    real space projection operators read in
  non local Contribution for L=           2  read in
    real space projection operators read in
  non local Contribution for L=           0  read in
    real space projection operators read in
  non local Contribution for L=           0  read in
    real space projection operators read in
  non local Contribution for L=           1  read in
    real space projection operators read in
  non local Contribution for L=           1  read in
    real space projection operators read in
    PAW grid and wavefunctions read in
 
   number of l-projection  operators is LMAX  =           6
   number of lm-projection operators is LMMAX =          18
 
 Optimization of the real space projectors (new method)

 maximal supplied QI-value         = 16.25
 optimisation between [QCUT,QGAM] = [ 12.51, 25.03] = [ 43.85,175.40] Ry 
 Optimized for a Real-space Cutoff    1.31 Angstroem

   l    n(q)    QCUT    max X(q) W(low)/X(q) W(high)/X(q)  e(spline) 
   2      9    12.514     4.811    0.56E-04    0.27E-04    0.54E-07
   2      9    12.514    15.146    0.50E-03    0.83E-03    0.65E-06
   0     10    12.514    14.357    0.12E-04    0.16E-04    0.90E-08
   0     10    12.514    43.282    0.85E-04    0.27E-03    0.25E-06
   1      9    12.514     5.514    0.64E-04    0.11E-04    0.56E-07
   1      9    12.514     7.697    0.40E-03    0.73E-04    0.27E-06
 Optimization of the real space projectors (new method)

 maximal supplied QI-value         = 15.68
 optimisation between [QCUT,QGAM] = [ 12.55, 25.10] = [ 44.09,176.36] Ry 
 Optimized for a Real-space Cutoff    1.56 Angstroem

   l    n(q)    QCUT    max X(q) W(low)/X(q) W(high)/X(q)  e(spline) 
   0     12    12.548    10.201    0.21E-04    0.36E-05    0.83E-07
   0     12    12.548     8.174    0.31E-04    0.62E-05    0.15E-06
   1     11    12.548     3.488    0.79E-05    0.23E-04    0.21E-06
   1     11    12.548     4.917    0.56E-04    0.13E-03    0.11E-05
   2     11    12.548   153.744    0.25E-03    0.10E-03    0.15E-05
   2     11    12.548   126.342    0.25E-03    0.10E-03    0.15E-05
 Optimization of the real space projectors (new method)

 maximal supplied QI-value         = 13.61
 optimisation between [QCUT,QGAM] = [ 12.52, 25.04] = [ 43.88,175.51] Ry 
 Optimized for a Real-space Cutoff    1.56 Angstroem

   l    n(q)    QCUT    max X(q) W(low)/X(q) W(high)/X(q)  e(spline) 
   2     11    12.518   130.855    0.35E-03    0.25E-03    0.12E-05
   2     11    12.518   114.007    0.35E-03    0.25E-03    0.12E-05
   0     12    12.518    84.709    0.29E-04    0.97E-05    0.60E-06
   0     12    12.518    49.163    0.27E-04    0.89E-05    0.55E-06
   1     11    12.518    15.765    0.74E-04    0.89E-04    0.15E-06
   1     11    12.518    10.638    0.55E-04    0.69E-04    0.13E-06
 PAW_PBE Ni 06Sep2000                   :
 energy of atom  1       EATOM=-1077.9025
 kinetic energy error for atom=    0.0019 (will be added to EATOM!!)
  PAW_PBE Nb_sv 25May2007               :
 energy of atom  2       EATOM=-1555.1913
 kinetic energy error for atom=    0.0037 (will be added to EATOM!!)
  PAW_PBE W 08Apr2002                   :
 energy of atom  3       EATOM= -204.6103
 kinetic energy error for atom=    0.0005 (will be added to EATOM!!)
 
 
 POSCAR: Ni Nb  W                                
  positions in direct lattice
  velocities in cartesian coordinates
 exchange correlation table for  LEXCH =        8
   RHO(1)=    0.500       N(1)  =     2000
   RHO(2)=  100.500       N(2)  =     4000
 


--------------------------------------------------------------------------------------------------------


 ion  position               nearest neighbor table
   1  0.013  0.475  0.241-  31 2.45   6 2.49  44 2.51  35 2.53  67 2.55  16 2.55  10 2.56  68 2.60
                            59 2.68
   2  0.192  0.976  0.246-  63 2.52  13 2.54   3 2.57  64 2.57  24 2.57  65 2.57  56 2.60  14 2.65

   3  0.017  0.028  0.174-   5 2.53  14 2.53  56 2.54  61 2.55   4 2.55  71 2.55  63 2.56   2 2.57
                            49 2.58  38 2.59  13 2.59  21 2.60
   4  0.188  0.194  0.173-  13 2.45  56 2.51  60 2.53  31 2.53  42 2.54  10 2.55   3 2.55  71 2.56
                             8 2.57   7 2.65  49 2.65
   5  0.182  0.976  0.102-  71 2.49  30 2.49  42 2.51  29 2.52   3 2.53  18 2.53  50 2.54  13 2.55
                            47 2.56  21 2.58  63 2.59  48 2.61
   6  0.854  0.311  0.241-   1 2.49  51 2.49  49 2.50  10 2.50  16 2.50  31 2.52  56 2.53  54 2.55
                            39 2.62
   7  0.182  0.309  0.097-  22 2.49  69 2.50  37 2.52  10 2.53  45 2.53  60 2.54  28 2.56  20 2.56
                            42 2.59  71 2.60  12 2.62   4 2.65
   8  0.518  0.195  0.173-  13 2.50  60 2.50  39 2.51  38 2.52  51 2.52  54 2.53  49 2.56  12 2.56
                             4 2.57  42 2.58  34 2.59
   9  0.692  0.704  0.025-  32 2.46  43 2.52  62 2.52  15 2.53  19 2.54  41 2.55  57 2.56  58 2.59
                            36 2.67
  10  0.016  0.359  0.169-  31 2.47   6 2.50  49 2.50   7 2.53  28 2.53   4 2.55   1 2.56  68 2.56
                            51 2.57  35 2.57  22 2.58  60 2.62
  11  0.681  0.808  0.244-  24 2.50  61 2.50  65 2.51  23 2.52  33 2.56  14 2.56  44 2.57  64 2.58
                            17 2.59
  12  0.518  0.300  0.097-  34 2.47  42 2.48  40 2.49  70 2.51  20 2.54  60 2.54   8 2.56  66 2.59
                            51 2.61  28 2.61  45 2.61   7 2.62
  13  0.350  0.033  0.174-  65 2.40   4 2.45   8 2.50  42 2.54   2 2.54   5 2.55  63 2.58   3 2.59
                            48 2.60  38 2.60  33 2.62
  14  0.851  0.975  0.246-  39 2.46  64 2.49   3 2.53  11 2.56  61 2.56  65 2.58  56 2.60  38 2.64
                             2 2.65
  15  0.850  0.640  0.096-  41 2.49  19 2.51  43 2.51   9 2.53  35 2.55  53 2.56  22 2.57  17 2.58
                            66 2.58  18 2.58  27 2.59  58 2.66
  16  0.685  0.473  0.240-  25 2.49  51 2.49   6 2.50  35 2.54  44 2.54  23 2.55  59 2.55   1 2.55
                            54 2.66
  17  0.688  0.695  0.170-  23 2.50  44 2.51  35 2.53  61 2.53  27 2.54  43 2.54  33 2.55  25 2.56
                            15 2.58  11 2.59  26 2.59  58 2.64
  18  0.017  0.810  0.101-  53 2.51  27 2.51  29 2.52  21 2.53  43 2.53   5 2.53  47 2.54  19 2.54
                            32 2.57  15 2.58  61 2.58  63 2.62
  19  0.019  0.702  0.028-  53 2.46  47 2.48  15 2.51  32 2.52  18 2.54   9 2.54  41 2.56  36 2.57
                            55 2.61
  20  0.357  0.358  0.025-  45 2.51  69 2.53  12 2.54  70 2.55   7 2.56  40 2.58  55 2.63  37 2.67
                            57 2.76
  21  0.851  0.975  0.100-  32 2.49  71 2.50  50 2.52  38 2.52  43 2.52  34 2.52  46 2.52  18 2.53
                            61 2.55   5 2.58  48 2.59   3 2.60
  22  0.015  0.471  0.096-   7 2.49  68 2.49  37 2.52  55 2.53  28 2.55  41 2.55  35 2.56  66 2.57
                            15 2.57  10 2.58  53 2.61  45 2.64
  23  0.522  0.642  0.241-  26 2.46  17 2.50  11 2.52  24 2.52  25 2.54  59 2.54  16 2.55  44 2.56
                            67 2.60
  24  0.361  0.808  0.247-  11 2.50  23 2.52  65 2.53  63 2.54   2 2.57  26 2.57  67 2.59  33 2.59
                            64 2.71
  25  0.521  0.527  0.170-  16 2.49  23 2.54  51 2.54  35 2.55  17 2.56  60 2.56  26 2.59  45 2.62
                            59 2.62  66 2.64  58 2.68  68 2.68
  26  0.354  0.697  0.173-  23 2.46  33 2.48  63 2.52  67 2.52  24 2.57  25 2.59  17 2.59  29 2.60
                            58 2.61  68 2.61  27 2.65  53 2.68
  27  0.014  0.693  0.171-  44 2.50  68 2.50  18 2.51  35 2.53  17 2.54  53 2.57  67 2.58  15 2.59
                            63 2.60  61 2.63  26 2.65  64 2.72
  28  0.853  0.302  0.098-  71 2.50  34 2.51  10 2.53  70 2.53  52 2.53  49 2.54  37 2.54  22 2.55
                             7 2.56  66 2.57  51 2.58  12 2.61
  29  0.341  0.810  0.099-  47 2.43  62 2.47  58 2.48  53 2.51   5 2.52  18 2.52  33 2.56  48 2.57
                            26 2.60  36 2.60  63 2.61  43 2.73
  30  0.342  0.025  0.031-  47 2.45   5 2.49  42 2.49  50 2.50  48 2.50  40 2.51  62 2.51  69 2.52
                            46 2.64
  31  0.177  0.316  0.241-   1 2.45  10 2.47   6 2.52  59 2.52   4 2.53  56 2.54  60 2.55  54 2.75

  32  0.849  0.866  0.029-   9 2.46  43 2.46  46 2.48  21 2.49  50 2.49  19 2.52  62 2.56  18 2.57
                            47 2.62
  33  0.516  0.860  0.171-  65 2.45  26 2.48  61 2.52  48 2.53  63 2.55  17 2.55  11 2.56  29 2.56
                            43 2.58  24 2.59  38 2.61  13 2.62
  34  0.684  0.139  0.099-  12 2.47  40 2.49  38 2.50  46 2.51  28 2.51  48 2.52  21 2.52  52 2.54
                            49 2.57  71 2.58   8 2.59  42 2.60
  35  0.849  0.527  0.168-  17 2.53  27 2.53   1 2.53  16 2.54  51 2.55  68 2.55  15 2.55  25 2.55
                            22 2.56  44 2.57  10 2.57  66 2.60
  36  0.348  0.701  0.023-  47 2.49  58 2.52  62 2.56  19 2.57  53 2.60  29 2.60  55 2.64  57 2.65
                             9 2.67
  37  0.015  0.357  0.025-  22 2.52   7 2.52  69 2.53  28 2.54  52 2.54  70 2.57  55 2.58  41 2.66
                            20 2.67
  38  0.685  0.031  0.170-  65 2.44  39 2.46  61 2.50  34 2.50  49 2.51  48 2.51   8 2.52  21 2.52
                             3 2.59  13 2.60  33 2.61  14 2.64
  39  0.691  0.136  0.241-  54 2.44  14 2.46  38 2.46  49 2.46   8 2.51  65 2.51  56 2.57   6 2.62

  40  0.516  0.186  0.028-  46 2.46  34 2.49  12 2.49  30 2.51  42 2.51  70 2.52  69 2.55  20 2.58
                            52 2.65
  41  0.852  0.535  0.024-  15 2.49  57 2.50  55 2.52  66 2.54   9 2.55  22 2.55  19 2.56  37 2.66
                            70 2.76
  42  0.350  0.139  0.100-  12 2.48  30 2.49  40 2.51   5 2.51  69 2.52  48 2.52  13 2.54   4 2.54
                             8 2.58   7 2.59  71 2.60  34 2.60
  43  0.692  0.807  0.098-  62 2.45  32 2.46  15 2.51   9 2.52  21 2.52  58 2.53  18 2.53  17 2.54
                            61 2.54  33 2.58  48 2.59  29 2.73
  44  0.850  0.640  0.241-  27 2.50  17 2.51   1 2.51  16 2.54  23 2.56  35 2.57  11 2.57  64 2.59
                            67 2.63
  45  0.354  0.473  0.095-  20 2.51   7 2.53  55 2.56  68 2.57  66 2.58  58 2.60  60 2.61  12 2.61
                            25 2.62  53 2.63  22 2.64  57 2.97
  46  0.681  0.026  0.029-  62 2.45  40 2.46  32 2.48  34 2.51  48 2.51  52 2.52  21 2.52  30 2.64
                            50 2.64
  47  0.185  0.863  0.030-  29 2.43  30 2.45  19 2.48  50 2.48  36 2.49  18 2.54   5 2.56  62 2.61
                            32 2.62
  48  0.517  0.975  0.100-  62 2.43  30 2.50  46 2.51  38 2.51  34 2.52  42 2.52  33 2.53  29 2.57
                            43 2.59  21 2.59  13 2.60   5 2.61
  49  0.847  0.197  0.172-  39 2.46  51 2.48   6 2.50  10 2.50  38 2.51  28 2.54  71 2.54   8 2.56
                            34 2.57  56 2.57   3 2.58   4 2.65
  50  0.021  0.025  0.029-  47 2.48  52 2.49  32 2.49  30 2.50  21 2.52   5 2.54  71 2.55  69 2.57
                            46 2.64
  51  0.686  0.360  0.171-  49 2.48   6 2.49  16 2.49   8 2.52  25 2.54  35 2.55  10 2.57  60 2.58
                            28 2.58  12 2.61  66 2.64  54 2.68
  52  0.856  0.188  0.027-  50 2.49  70 2.51  46 2.52  28 2.53  34 2.54  37 2.54  71 2.56  69 2.59
                            40 2.65
  53  0.178  0.645  0.096-  19 2.46  68 2.50  18 2.51  29 2.51  15 2.56  58 2.56  27 2.57  55 2.59
                            36 2.60  22 2.61  45 2.63  26 2.68
  54  0.528  0.294  0.248-  39 2.44   8 2.53   6 2.55  16 2.66  51 2.68  59 2.72  31 2.75  60 2.78

  55  0.177  0.528  0.024-  41 2.52  22 2.53  45 2.56  37 2.58  53 2.59  19 2.61  20 2.63  36 2.64
                            57 2.83
  56  0.021  0.146  0.244-   4 2.51   6 2.53  31 2.54   3 2.54  49 2.57  39 2.57   2 2.60  14 2.60

  57  0.537  0.535  0.009-  41 2.50   9 2.56  36 2.65  70 2.75  20 2.76  55 2.83  66 2.84  58 2.91
                            45 2.97
  58  0.508  0.649  0.095-  29 2.48  36 2.52  43 2.53  53 2.56   9 2.59  45 2.60  26 2.61  17 2.64
                            15 2.66  25 2.68  66 2.72  57 2.91
  59  0.357  0.475  0.246-  31 2.52  67 2.53  23 2.54  16 2.55  25 2.62   1 2.68  60 2.68  54 2.72
                            68 2.79
  60  0.354  0.359  0.169-   8 2.50   4 2.53   7 2.54  12 2.54  31 2.55  25 2.56  51 2.58  45 2.61
                            10 2.62  68 2.63  59 2.68  54 2.78
  61  0.840  0.865  0.173-  38 2.50  11 2.50  33 2.52  17 2.53  43 2.54   3 2.55  21 2.55  14 2.56
                            18 2.58  27 2.63  64 2.65  63 2.72  65 3.42
  62  0.520  0.865  0.032-  48 2.43  43 2.45  46 2.45  29 2.47  30 2.51   9 2.52  36 2.56  32 2.56
                            47 2.61
  63  0.189  0.862  0.176-  26 2.52   2 2.52  24 2.54  33 2.55   3 2.56  64 2.58  13 2.58   5 2.59
                            27 2.60  29 2.61  18 2.62  61 2.72  65 3.47
  64  0.013  0.812  0.248-  14 2.49   2 2.57  63 2.58  11 2.58  44 2.59  67 2.65  61 2.65  24 2.71
                            27 2.72
  65  0.521  0.974  0.238-  13 2.40  38 2.44  33 2.45  39 2.51  11 2.51  24 2.53   2 2.57  14 2.58
                            61 3.42  63 3.47
  66  0.685  0.470  0.094-  70 2.52  41 2.54  22 2.57  28 2.57  45 2.58  15 2.58  12 2.59  35 2.60
                            25 2.64  51 2.64  58 2.72  57 2.84
  67  0.188  0.639  0.243-  26 2.52  59 2.53   1 2.55  27 2.58  24 2.59  23 2.60  44 2.63  64 2.65
                            68 2.66
  68  0.176  0.529  0.166-  22 2.49  53 2.50  27 2.50  35 2.55  10 2.56  45 2.57   1 2.60  26 2.61
                            60 2.63  67 2.66  25 2.68  59 2.79
  69  0.189  0.194  0.028-   7 2.50  42 2.52  30 2.52  20 2.53  37 2.53  40 2.55  50 2.57  52 2.59
                            71 2.60
  70  0.684  0.349  0.026-  52 2.51  12 2.51  40 2.52  66 2.52  28 2.53  20 2.55  37 2.57  57 2.75
                            41 2.76
  71  0.016  0.138  0.101-   5 2.49  21 2.50  28 2.50  49 2.54  50 2.55   3 2.55  52 2.56   4 2.56
                            34 2.58  42 2.60  69 2.60   7 2.60
 
  LATTYP: Found a simple orthorhombic cell.
 ALAT       =     7.7784981728
 B/A-ratio  =     1.6889770438
 C/A-ratio  =     3.6971751997
  
  Lattice vectors:
  
 A1 = (   7.7784981728,   0.0000000000,   0.0000000000)
 A2 = (   0.0000000000,  13.1377048492,   0.0000000000)
 A3 = (   0.0000000000,   0.0000000000,  28.7584705353)


Analysis of symmetry for initial positions (statically):
=====================================================================
 Subroutine PRICEL returns:
 Original cell was already a primitive cell.
 

 Routine SETGRP: Setting up the symmetry group for a 
 simple orthorhombic supercell.


 Subroutine GETGRP returns: Found  1 space group operations
 (whereof  1 operations were pure point group operations)
 out of a pool of  8 trial point group operations.


The static configuration has the point symmetry C_1 .


Analysis of symmetry for dynamics (positions and initial velocities):
=====================================================================
 Subroutine PRICEL returns:
 Original cell was already a primitive cell.
 

 Routine SETGRP: Setting up the symmetry group for a 
 simple orthorhombic supercell.


 Subroutine GETGRP returns: Found  1 space group operations
 (whereof  1 operations were pure point group operations)
 out of a pool of  8 trial point group operations.


The dynamic configuration has the point symmetry C_1 .


Analysis of constrained symmetry for selective dynamics:
=====================================================================
 Subroutine PRICEL returns:
 Original cell was already a primitive cell.
 

 Routine SETGRP: Setting up the symmetry group for a 
 simple orthorhombic supercell.


 Subroutine GETGRP returns: Found  1 space group operations
 (whereof  1 operations were pure point group operations)
 out of a pool of  8 trial point group operations.


The constrained configuration has the point symmetry C_1 .


Analysis of structural, dynamic, and magnetic symmetry:
=====================================================================
 Subroutine PRICEL returns:
 Original cell was already a primitive cell.
 

 Routine SETGRP: Setting up the symmetry group for a 
 simple orthorhombic supercell.


 Subroutine GETGRP returns: Found  1 space group operations
 (whereof  1 operations were pure point group operations)
 out of a pool of  8 trial point group operations.


The magnetic configuration has the point symmetry C_1 .


 Subroutine INISYM returns: Found  1 space group operations
 (whereof  1 operations are pure point group operations),
 and found     1 'primitive' translations

 
 
 KPOINTS: k-points                                

Automatic generation of k-mesh.
Space group operators:
 irot       det(A)        alpha          n_x          n_y          n_z        tau_x        tau_y        tau_z
    1     1.000000     0.000000     1.000000     0.000000     0.000000     0.000000     0.000000     0.000000
 
 Subroutine IBZKPT returns following result:
 ===========================================
 
 Found      8 irreducible k-points:
 
 Following reciprocal coordinates:
            Coordinates               Weight
  0.125000  0.125000  0.000000      2.000000
  0.375000  0.125000  0.000000      2.000000
 -0.375000  0.125000  0.000000      2.000000
 -0.125000  0.125000  0.000000      2.000000
  0.125000  0.375000  0.000000      2.000000
  0.375000  0.375000  0.000000      2.000000
 -0.375000  0.375000  0.000000      2.000000
 -0.125000  0.375000  0.000000      2.000000
 
 Following cartesian coordinates:
            Coordinates               Weight
  0.016070  0.009515  0.000000      2.000000
  0.048210  0.009515  0.000000      2.000000
 -0.048210  0.009515  0.000000      2.000000
 -0.016070  0.009515  0.000000      2.000000
  0.016070  0.028544  0.000000      2.000000
  0.048210  0.028544  0.000000      2.000000
 -0.048210  0.028544  0.000000      2.000000
 -0.016070  0.028544  0.000000      2.000000
 


--------------------------------------------------------------------------------------------------------




 Dimension of arrays:
   k-points           NKPTS =      8   k-points in BZ     NKDIM =      8   number of bands    NBANDS=    440
   number of dos      NEDOS =    301   number of ions     NIONS =     71
   non local maximal  LDIM  =      6   non local SUM 2l+1 LMDIM =     18
   total plane-waves  NPLWV = 691200
   max r-space proj   IRMAX =   3792   max aug-charges    IRDMAX=  13623
   dimension x,y,z NGX =    48 NGY =   80 NGZ =  180
   dimension x,y,z NGXF=    96 NGYF=  160 NGZF=  360
   support grid    NGXF=    96 NGYF=  160 NGZF=  360
   ions per type =              53   5  13
   NGX,Y,Z   is equivalent  to a cutoff of  10.26, 10.12, 10.41 a.u.
   NGXF,Y,Z  is equivalent  to a cutoff of  20.52, 20.25, 20.81 a.u.

 SYSTEM =  clean (100) surface                     
 POSCAR =  Ni Nb  W                                

 Startparameter for this run:
   NWRITE =      2    write-flag & timer
   PREC   = normal    normal or accurate (medium, high low for compatibility)
   ISTART =      0    job   : 0-new  1-cont  2-samecut
   ICHARG =      2    charge: 1-file 2-atom 10-const
   ISPIN  =      2    spin polarized calculation?
   LNONCOLLINEAR =      F non collinear calculations
   LSORBIT =      F    spin-orbit coupling
   INIWAV =      1    electr: 0-lowe 1-rand  2-diag
   LASPH  =      F    aspherical Exc in radial PAW
   METAGGA=      F    non-selfconsistent MetaGGA calc.

 Electronic Relaxation 1
   ENCUT  =  600.0 eV  44.10 Ry    6.64 a.u.  15.54 26.24 57.44*2*pi/ulx,y,z
   ENINI  =  600.0     initial cutoff
   ENAUG  =  544.6 eV  augmentation charge cutoff
   NELM   =     60;   NELMIN=  2; NELMDL= -5     # of ELM steps 
   EDIFF  = 0.1E-05   stopping-criterion for ELM
   LREAL  =      T    real-space projection
   NLSPLINE    = F    spline interpolate recip. space projectors
   LCOMPAT=      F    compatible to vasp.4.4
   GGA_COMPAT  = T    GGA compatible to vasp.4.4-vasp.4.6
   LMAXPAW     = -100 max onsite density
   LMAXMIX     =    2 max onsite mixed and CHGCAR
   VOSKOWN=      0    Vosko Wilk Nusair interpolation
   ROPT   =   -0.00050  -0.00050  -0.00050
 Ionic relaxation
   EDIFFG = -.1E-01   stopping-criterion for IOM
   NSW    =    250    number of steps for IOM
   NBLOCK =      1;   KBLOCK =    250    inner block; outer block 
   IBRION =      2    ionic relax: 0-MD 1-quasi-New 2-CG
   NFREE  =      1    steps in history (QN), initial steepest desc. (CG)
   ISIF   =      2    stress and relaxation
   IWAVPR =     11    prediction:  0-non 1-charg 2-wave 3-comb
   ISYM   =      2    0-nonsym 1-usesym 2-fastsym
   LCORR  =      T    Harris-Foulkes like correction to forces

   POTIM  = 0.1000    time-step for ionic-motion
   TEIN   =    0.0    initial temperature
   TEBEG  =    0.0;   TEEND  =   0.0 temperature during run
   SMASS  =  -3.00    Nose mass-parameter (am)
   estimated Nose-frequenzy (Omega)   =  0.10E-29 period in steps =****** mass=  -0.138E-26a.u.
   SCALEE = 1.0000    scale energy and forces
   NPACO  =    256;   APACO  = 16.0  distance and # of slots for P.C.
   PSTRESS=    0.0 pullay stress

  Mass of Ions in am
   POMASS =  58.69 92.91183.85
  Ionic Valenz
   ZVAL   =  10.00 13.00  6.00
  Atomic Wigner-Seitz radii
   RWIGS  =  -1.00 -1.00 -1.00
  virtual crystal weights 
   VCA    =   1.00  1.00  1.00
   NELECT =     673.0000    total number of electrons
   NUPDOWN=      -1.0000    fix difference up-down

 DOS related values:
   EMIN   =  10.00;   EMAX   =-10.00  energy-range for DOS
   EFERMI =   0.00
   ISMEAR =     2;   SIGMA  =   0.20  broadening in eV -4-tet -1-fermi 0-gaus

 Electronic relaxation 2 (details)
   IALGO  =     68    algorithm
   LDIAG  =      T    sub-space diagonalisation (order eigenvalues)
   LSUBROT=      F    optimize rotation matrix (better conditioning)
   TURBO    =      0    0=normal 1=particle mesh
   IRESTART =      0    0=no restart 2=restart with 2 vectors
   NREBOOT  =      0    no. of reboots
   NMIN     =      0    reboot dimension
   EREF     =   0.00    reference energy to select bands
   IMIX   =      4    mixing-type and parameters
     AMIX     =   0.40;   BMIX     =  1.00
     AMIX_MAG =   1.60;   BMIX_MAG =  1.00
     AMIN     =   0.10
     WC   =   100.;   INIMIX=   1;  MIXPRE=   1;  MAXMIX= -45

 Intra band minimization:
   WEIMIN = 0.0010     energy-eigenvalue tresh-hold
   EBREAK =  0.57E-09  absolut break condition
   DEPER  =   0.30     relativ break condition  

   TIME   =   0.40     timestep for ELM

  volume/ion in A,a.u.               =      41.39       279.33
  Fermi-wavevector in a.u.,A,eV,Ry     =   1.001581  1.892714 13.648888  1.003165
  Thomas-Fermi vector in A             =   2.134013
 
 Write flags
   LWAVE        =      F    write WAVECAR
   LDOWNSAMPLE  =      F    k-point downsampling of WAVECAR
   LCHARG       =      F    write CHGCAR
   LVTOT        =      F    write LOCPOT, total local potential
   LVHAR        =      F    write LOCPOT, Hartree potential only
   LELF         =      F    write electronic localiz. function (ELF)
   LORBIT       =      0    0 simple, 1 ext, 2 COOP (PROOUT), +10 PAW based schemes


 Dipole corrections
   LMONO  =      F    monopole corrections only (constant potential shift)
   LDIPOL =      F    correct potential (dipole corrections)
   IDIPOL =      0    1-x, 2-y, 3-z, 4-all directions 
   EPSILON=  1.0000000 bulk dielectric constant

 Exchange correlation treatment:
   GGA     =    --    GGA type
   LEXCH   =     8    internal setting for exchange type
   VOSKOWN=      0    Vosko Wilk Nusair interpolation
   LHFCALC =     F    Hartree Fock is set to
   LHFONE  =     F    Hartree Fock one center treatment
   AEXX    =    0.0000 exact exchange contribution

 Linear response parameters
   LEPSILON=     F    determine dielectric tensor
   LRPA    =     F    only Hartree local field effects (RPA)
   LNABLA  =     F    use nabla operator in PAW spheres
   LVEL    =     F    velocity operator in full k-point grid
   LINTERFAST=   F  fast interpolation
   KINTER  =     0    interpolate to denser k-point grid
   CSHIFT  =0.1000    complex shift for real part using Kramers Kronig
   OMEGAMAX=  -1.0    maximum frequency
   DEG_THRESHOLD= 0.2000000E-02 threshold for treating states as degnerate
   RTIME   =   -0.100 relaxation time in fs
  (WPLASMAI=    0.000 imaginary part of plasma frequency in eV, 0.658/RTIME)
   DFIELD  = 0.0000000 0.0000000 0.0000000 field for delta impulse in time
 
 Orbital magnetization related:
   ORBITALMAG=     F  switch on orbital magnetization
   LCHIMAG   =     F  perturbation theory with respect to B field
   DQ        =  0.001000  dq finite difference perturbation B field
   LLRAUG    =     F  two centre corrections for induced B field



--------------------------------------------------------------------------------------------------------


 conjugate gradient relaxation of ions
   using selective dynamics as specified on POSCAR
 charge density and potential will be updated during run
 spin polarized calculation
 RMM-DIIS sequential band-by-band and
  variant of blocked Davidson during initial phase
 perform sub-space diagonalisation
    before iterative eigenvector-optimisation
 modified Broyden-mixing scheme, WC =      100.0
 initial mixing is a Kerker type mixing with AMIX =  0.4000 and BMIX =      1.0000
 Hartree-type preconditioning will be used
 using additional bands          103
 real space projection scheme for non local part
 use partial core corrections
 calculate Harris-corrections to forces 
   (improved forces if not selfconsistent)
 use gradient corrections 
 use of overlap-Matrix (Vanderbilt PP)
 Methfessel and Paxton  Order N= 2 SIGMA  =   0.20


--------------------------------------------------------------------------------------------------------


  energy-cutoff  :      600.00
  volume of cell :     2938.87
      direct lattice vectors                 reciprocal lattice vectors
     7.778498173  0.000000000  0.000000000     0.128559521  0.000000000  0.000000000
     0.000000000 13.137704849  0.000000000     0.000000000  0.076116796  0.000000000
     0.000000000  0.000000000 28.758470535     0.000000000  0.000000000  0.034772364

  length of vectors
     7.778498173 13.137704849 28.758470535     0.128559521  0.076116796  0.034772364


 
 k-points in units of 2pi/SCALE and weight: k-points                                
   0.01606994  0.00951460  0.00000000       0.125
   0.04820982  0.00951460  0.00000000       0.125
  -0.04820982  0.00951460  0.00000000       0.125
  -0.01606994  0.00951460  0.00000000       0.125
   0.01606994  0.02854380  0.00000000       0.125
   0.04820982  0.02854380  0.00000000       0.125
  -0.04820982  0.02854380  0.00000000       0.125
  -0.01606994  0.02854380  0.00000000       0.125
 
 k-points in reciprocal lattice and weights: k-points                                
   0.12500000  0.12500000  0.00000000       0.125
   0.37500000  0.12500000  0.00000000       0.125
  -0.37500000  0.12500000  0.00000000       0.125
  -0.12500000  0.12500000  0.00000000       0.125
   0.12500000  0.37500000  0.00000000       0.125
   0.37500000  0.37500000  0.00000000       0.125
  -0.37500000  0.37500000  0.00000000       0.125
  -0.12500000  0.37500000  0.00000000       0.125
 
 position of ions in fractional coordinates (direct lattice) 
   0.01278940  0.47523415  0.24056259
   0.19220465  0.97583592  0.24628541
   0.01717356  0.02774617  0.17440605
   0.18806664  0.19352951  0.17269557
   0.18176015  0.97599418  0.10242153
   0.85363884  0.31119065  0.24130412
   0.18185604  0.30932552  0.09726507
   0.51848203  0.19538626  0.17266345
   0.69174629  0.70353079  0.02474701
   0.01638319  0.35857174  0.16942730
   0.68140529  0.80839633  0.24390795
   0.51774710  0.29964626  0.09743019
   0.35014054  0.03328525  0.17365831
   0.85149752  0.97535989  0.24620892
   0.84975159  0.64034343  0.09611478
   0.68458331  0.47342974  0.24030751
   0.68774651  0.69465077  0.17026329
   0.01729976  0.80951559  0.10125576
   0.01854145  0.70249915  0.02756251
   0.35722980  0.35799846  0.02523561
   0.85071179  0.97461391  0.09971018
   0.01473417  0.47088006  0.09566164
   0.52180222  0.64197691  0.24090952
   0.36062544  0.80755694  0.24672985
   0.52089235  0.52688827  0.16992370
   0.35439420  0.69708845  0.17285982
   0.01431102  0.69339453  0.17069182
   0.85340101  0.30194870  0.09793551
   0.34136507  0.80951512  0.09855519
   0.34221569  0.02505720  0.03075818
   0.17703300  0.31568910  0.24086063
   0.84868544  0.86561239  0.02883669
   0.51595382  0.85985408  0.17055883
   0.68406248  0.13931978  0.09872251
   0.84907936  0.52748131  0.16818829
   0.34826052  0.70073599  0.02297433
   0.01460779  0.35665453  0.02537953
   0.68470829  0.03125803  0.17024229
   0.69119737  0.13634940  0.24108606
   0.51575571  0.18565848  0.02818314
   0.85233480  0.53454304  0.02420950
   0.34956811  0.13947223  0.09994808
   0.69231445  0.80715913  0.09830730
   0.85030209  0.64013513  0.24121783
   0.35363471  0.47321785  0.09489550
   0.68127644  0.02587022  0.02861967
   0.18514094  0.86345625  0.02970118
   0.51733808  0.97506023  0.10002620
   0.84707156  0.19659095  0.17185455
   0.02116681  0.02542408  0.02909101
   0.68571667  0.35972121  0.17083843
   0.85591453  0.18764234  0.02693425
   0.17837599  0.64452368  0.09640931
   0.52803394  0.29420425  0.24814435
   0.17667772  0.52758628  0.02393096
   0.02139504  0.14608383  0.24428810
   0.53659064  0.53547454  0.00882442
   0.50784022  0.64876383  0.09540285
   0.35711247  0.47498969  0.24578819
   0.35371797  0.35892103  0.16899674
   0.83951091  0.86499910  0.17275469
   0.52003181  0.86542088  0.03216955
   0.18909599  0.86168532  0.17592684
   0.01298039  0.81158625  0.24831977
   0.52132100  0.97415999  0.23780014
   0.68470490  0.47014680  0.09402694
   0.18776375  0.63910368  0.24312503
   0.17629762  0.52902684  0.16567405
   0.18877402  0.19379635  0.02819043
   0.68436050  0.34922993  0.02600386
   0.01593611  0.13772322  0.10119695
 
 position of ions in cartesian coordinates  (Angst):
   0.09948230  6.24348603  6.91821205
   1.49506355 12.82024428  7.08279170
   0.13358452  0.36452098  5.01565111
   1.46287598  2.54253365  4.96646049
   1.41382102 12.82232349  2.94548644
   6.64002812  4.08833097  6.93953732
   1.41456684  4.06382733  2.79719471
   4.03301151  2.56692704  4.96553676
   5.38074728  9.24277985  0.71168616
   0.12743665  4.71080969  4.87247013
   5.30030977 10.62047238  7.01441955
   4.02729490  3.93666410  2.80194331
   2.72356752  0.43729179  4.99414737
   6.62337188 12.81399035  7.08059197
   6.60979121  8.41264296  2.76411398
   5.32503004  6.21978016  6.91087646
   5.34963501  9.12611682  4.89651185
   0.13456613 10.63517684  2.91196077
   0.14422466  9.22922650  0.79265557
   2.77871134  4.70327812  0.72573760
   6.61726008 12.80418995  2.86751215
   0.11460971  6.18628326  2.75108246
   4.05883763  8.43410320  6.92818947
   2.80512433 10.60944472  7.09557300
   4.05176022  6.92210255  4.88674578
   2.75665465  9.15814225  4.97118401
   0.11131827  9.10961262  4.90883574
   6.63817816  3.96691285  2.81647533
   2.65530757 10.63517070  2.83429638
   2.66192410  0.32919415  0.88455827
   1.37705084  4.14743022  6.92678326
   6.60149817 11.37216007  0.82929898
   4.01334581 11.29650908  4.90501119
   5.32097876  1.83034211  2.83910840
   6.60456224  6.92989371  4.83683806
   2.70894383  9.20606256  0.66070651
   0.11362668  4.68562188  0.72987655
   5.32600215  0.41065874  4.89590799
   5.37647751  1.79131811  6.93326644
   4.01180487  2.43912638  0.81050394
   6.62988466  7.02266865  0.69622822
   2.71911489  1.83234502  2.87435380
   5.38516665 10.60421836  2.82716771
   6.61407326  8.40990634  6.93705596
   2.75074698  6.21699638  2.72904956
   5.29930755  0.33987533  0.82305802
   1.44011845 11.34383335  0.85416062
   4.02411334 12.81005345  2.87660049
   6.58894456  2.58275386  4.94227389
   0.16464597  0.33401409  0.83661310
   5.33384584  4.72591106  4.91305204
   6.65772963  2.46518963  0.77458786
   1.38749730  8.46756188  2.77258419
   4.10731106  3.86516867  7.13625196
   1.37428731  6.93127284  0.68821769
   0.16642128  1.91920622  7.02535224
   4.17386928  7.03490645  0.25377674
   3.95023419  8.52326778  2.74364011
   2.77779866  6.24027435  7.06849247
   2.75139456  4.71539855  4.86008769
   6.53013406 11.36410290  4.96816059
   4.04506648 11.36964407  0.92514697
   1.47088284 11.32056742  5.05938677
   0.10096791 10.66238062  7.14129674
   4.05509442 12.79822642  6.83876838
   5.32597581  6.17664996  2.70407093
   1.46052000  8.39635548  6.99190389
   1.37133074  6.95019852  4.76453235
   1.46837836  2.54603927  0.81071371
   5.32329693  4.58807977  0.74783136
   0.12395902  1.80936704  2.91026952
 


--------------------------------------------------------------------------------------------------------


 k-point  1 :   0.1250 0.1250 0.0000  plane waves:   98110
 k-point  2 :   0.3750 0.1250 0.0000  plane waves:   98013
 k-point  3 :  -0.3750 0.1250 0.0000  plane waves:   98013
 k-point  4 :  -0.1250 0.1250 0.0000  plane waves:   98110
 k-point  5 :   0.1250 0.3750 0.0000  plane waves:   98128
 k-point  6 :   0.3750 0.3750 0.0000  plane waves:   98036
 k-point  7 :  -0.3750 0.3750 0.0000  plane waves:   98036
 k-point  8 :  -0.1250 0.3750 0.0000  plane waves:   98128

 maximum and minimum number of plane-waves per node :      6571     6518

 maximum number of plane-waves:     98128
 maximum index in each direction: 
   IXMAX=   15   IYMAX=   26   IZMAX=   57
   IXMIN=  -15   IYMIN=  -26   IZMIN=  -57


 real space projection operators:
  total allocation   :      25084.97 KBytes
  max/ min on nodes  :       2118.23       1419.33


 parallel 3D FFT for wavefunctions:
    minimum data exchange during FFTs selected (reduces bandwidth)
 parallel 3D FFT for charge:
    minimum data exchange during FFTs selected (reduces bandwidth)


 total amount of memory used by VASP MPI-rank0   244530. kBytes
=======================================================================

   base      :      30000. kBytes
   nonlr-proj:       7160. kBytes
   fftplans  :       5432. kBytes
   grid      :      14801. kBytes
   one-center:        155. kBytes
   wavefun   :     186982. kBytes
 
     INWAV:  cpu time    0.0000: real time    0.0000
 Broyden mixing: mesh for mixing (old mesh)
   NGX = 31   NGY = 53   NGZ =115
  (NGX  = 96   NGY  =160   NGZ  =360)
  gives a total of 188945 points

 initial charge density was supplied:
 charge density of overlapping atoms calculated
 number of electron     673.0000000 magnetization      71.0000000
 keeping initial charge density in first step


--------------------------------------------------------------------------------------------------------


 Maximum index for non-local projection operator          530
 Maximum index for augmentation-charges          667 (set IRDMAX)


--------------------------------------------------------------------------------------------------------


 First call to EWALD:  gamma=   0.124
 Maximum number of real-space cells 5x 3x 2
 Maximum number of reciprocal cells 2x 3x 5

    FEWALD:  cpu time    0.0032: real time    0.0033


--------------------------------------- Iteration      1(   1)  ---------------------------------------


    POTLOK:  cpu time    0.1384: real time    0.1428
    SETDIJ:  cpu time    0.0207: real time    0.0208
     EDDAV:  cpu time   33.3621: real time   33.5296
       DOS:  cpu time    0.0062: real time    0.0062
    --------------------------------------------
      LOOP:  cpu time   33.5274: real time   33.6994

 eigenvalue-minimisations  : 14208
 total energy-change (2. order) : 0.6002428E+04  (-0.3048884E+05)
 number of electron     673.0000000 magnetization      71.0000000
 augmentation part      673.0000000 magnetization      71.0000000

 Free energy of the ion-electron system (eV)
  ---------------------------------------------------
  alpha Z        PSCENC =      1716.51401600
  Ewald energy   TEWEN  =    439226.47849104
  -Hartree energ DENC   =   -503617.41427028
  -exchange      EXHF   =         0.00000000
  -V(xc)+E(xc)   XCENC  =      1328.46632551
  PAW double counting   =     55449.09725743   -58125.83629174
  entropy T*S    EENTRO =        -0.00316530
  eigenvalues    EBANDS =      2460.52852437
  atomic energy  EATOM  =     67564.59709734
  Solvation  Ediel_sol  =         0.00000000
  ---------------------------------------------------
  free energy    TOTEN  =      6002.42798438 eV

  energy without entropy =     6002.43114968  energy(sigma->0) =     6002.42877571


--------------------------------------------------------------------------------------------------------




--------------------------------------- Iteration      1(   2)  ---------------------------------------


     EDDAV:  cpu time   32.9652: real time   33.1046
       DOS:  cpu time    0.0053: real time    0.0053
    --------------------------------------------
      LOOP:  cpu time   32.9705: real time   33.1098

 eigenvalue-minimisations  : 14080
 total energy-change (2. order) :-0.5755364E+04  (-0.5466505E+04)
 number of electron     673.0000000 magnetization      71.0000000
 augmentation part      673.0000000 magnetization      71.0000000

 Free energy of the ion-electron system (eV)
  ---------------------------------------------------
  alpha Z        PSCENC =      1716.51401600
  Ewald energy   TEWEN  =    439226.47849104
  -Hartree energ DENC   =   -503617.41427028
  -exchange      EXHF   =         0.00000000
  -V(xc)+E(xc)   XCENC  =      1328.46632551
  PAW double counting   =     55449.09725743   -58125.83629174
  entropy T*S    EENTRO =         0.00104469
  eigenvalues    EBANDS =     -3294.84002239
  atomic energy  EATOM  =     67564.59709734
  Solvation  Ediel_sol  =         0.00000000
  ---------------------------------------------------
  free energy    TOTEN  =       247.06364761 eV

  energy without entropy =      247.06260292  energy(sigma->0) =      247.06338644


--------------------------------------------------------------------------------------------------------




--------------------------------------- Iteration      1(   3)  ---------------------------------------


     EDDAV:  cpu time   36.8043: real time   36.9484
       DOS:  cpu time    0.0052: real time    0.0052
    --------------------------------------------
      LOOP:  cpu time   36.8095: real time   36.9536

 eigenvalue-minimisations  : 16328
 total energy-change (2. order) :-0.6950238E+03  (-0.6360448E+03)
 number of electron     673.0000000 magnetization      71.0000000
 augmentation part      673.0000000 magnetization      71.0000000

 Free energy of the ion-electron system (eV)
  ---------------------------------------------------
  alpha Z        PSCENC =      1716.51401600
  Ewald energy   TEWEN  =    439226.47849104
  -Hartree energ DENC   =   -503617.41427028
  -exchange      EXHF   =         0.00000000
  -V(xc)+E(xc)   XCENC  =      1328.46632551
  PAW double counting   =     55449.09725743   -58125.83629174
  entropy T*S    EENTRO =        -0.02625549
  eigenvalues    EBANDS =     -3989.83651516
  atomic energy  EATOM  =     67564.59709734
  Solvation  Ediel_sol  =         0.00000000
  ---------------------------------------------------
  free energy    TOTEN  =      -447.96014533 eV

  energy without entropy =     -447.93388984  energy(sigma->0) =     -447.95358146


--------------------------------------------------------------------------------------------------------




--------------------------------------- Iteration      1(   4)  ---------------------------------------


     EDDAV:  cpu time   45.7267: real time   45.9056
       DOS:  cpu time    0.0057: real time    0.0057
    --------------------------------------------
      LOOP:  cpu time   45.7324: real time   45.9114

 eigenvalue-minimisations  : 21480
 total energy-change (2. order) :-0.9545632E+02  (-0.8626879E+02)
 number of electron     673.0000000 magnetization      71.0000000
 augmentation part      673.0000000 magnetization      71.0000000

 Free energy of the ion-electron system (eV)
  ---------------------------------------------------
  alpha Z        PSCENC =      1716.51401600
  Ewald energy   TEWEN  =    439226.47849104
  -Hartree energ DENC   =   -503617.41427028
  -exchange      EXHF   =         0.00000000
  -V(xc)+E(xc)   XCENC  =      1328.46632551
  PAW double counting   =     55449.09725743   -58125.83629174
  entropy T*S    EENTRO =        -0.00970248
  eigenvalues    EBANDS =     -4085.30939179
  atomic energy  EATOM  =     67564.59709734
  Solvation  Ediel_sol  =         0.00000000
  ---------------------------------------------------
  free energy    TOTEN  =      -543.41646895 eV

  energy without entropy =     -543.40676647  energy(sigma->0) =     -543.41404333


--------------------------------------------------------------------------------------------------------




--------------------------------------- Iteration      1(   5)  ---------------------------------------


     EDDAV:  cpu time   49.3666: real time   49.5619
       DOS:  cpu time    0.0054: real time    0.0054
    CHARGE:  cpu time    1.3488: real time    1.3539
    MIXING:  cpu time    0.0060: real time    0.0060
    --------------------------------------------
      LOOP:  cpu time   50.7268: real time   50.9272

 eigenvalue-minimisations  : 23528
 total energy-change (2. order) :-0.9818986E+01  (-0.9508861E+01)
 number of electron     672.9999943 magnetization      68.5836464
 augmentation part      306.1884864 magnetization      59.0151987

 Broyden mixing:
  rms(total) = 0.10049E+02    rms(broyden)= 0.10048E+02
  rms(prec ) = 0.10288E+02
  weight for this iteration     100.00

 Free energy of the ion-electron system (eV)
  ---------------------------------------------------
  alpha Z        PSCENC =      1716.51401600
  Ewald energy   TEWEN  =    439226.47849104
  -Hartree energ DENC   =   -503617.41427028
  -exchange      EXHF   =         0.00000000
  -V(xc)+E(xc)   XCENC  =      1328.46632551
  PAW double counting   =     55449.09725743   -58125.83629174
  entropy T*S    EENTRO =        -0.00853150
  eigenvalues    EBANDS =     -4095.12954848
  atomic energy  EATOM  =     67564.59709734
  Solvation  Ediel_sol  =         0.00000000
  ---------------------------------------------------
  free energy    TOTEN  =      -553.23545466 eV

  energy without entropy =     -553.22692316  energy(sigma->0) =     -553.23332179


--------------------------------------------------------------------------------------------------------




--------------------------------------- Iteration      1(   6)  ---------------------------------------


    POTLOK:  cpu time    0.1294: real time    0.1301
    SETDIJ:  cpu time    0.0101: real time    0.0102
    EDDIAG:  cpu time    7.0097: real time    7.0392
  RMM-DIIS:  cpu time   10.3177: real time   10.3604
    ORTHCH:  cpu time    2.8123: real time    2.8235
       DOS:  cpu time    0.0052: real time    0.0052
    CHARGE:  cpu time    1.3213: real time    1.3266
    MIXING:  cpu time    0.0030: real time    0.0081
    --------------------------------------------
      LOOP:  cpu time   21.6087: real time   21.7034

 eigenvalue-minimisations  : 14814
 total energy-change (2. order) :-0.1420531E+03  (-0.1157715E+03)
 number of electron     672.9999902 magnetization      66.6984779
 augmentation part      389.5172983 magnetization      56.3288535

 Broyden mixing:
  rms(total) = 0.10440E+02    rms(broyden)= 0.10440E+02
  rms(prec ) = 0.11343E+02
  weight for this iteration     100.00

 eigenvalues of (default mixing * dielectric matrix)
  average eigenvalue GAMMA=   0.4595
  0.4595

 Free energy of the ion-electron system (eV)
  ---------------------------------------------------
  alpha Z        PSCENC =      1716.51401600
  Ewald energy   TEWEN  =    439226.47849104
  -Hartree energ DENC   =   -502163.07594002
  -exchange      EXHF   =         0.00000000
  -V(xc)+E(xc)   XCENC  =      1252.77686739
  PAW double counting   =     57701.18628159   -60082.77714658
  entropy T*S    EENTRO =        -0.01412921
  eigenvalues    EBANDS =     -5910.97407483
  atomic energy  EATOM  =     67564.59709734
  Solvation  Ediel_sol  =         0.00000000
  ---------------------------------------------------
  free energy    TOTEN  =      -695.28853726 eV

  energy without entropy =     -695.27440806  energy(sigma->0) =     -695.28500496


--------------------------------------------------------------------------------------------------------




--------------------------------------- Iteration      1(   7)  ---------------------------------------


    POTLOK:  cpu time    0.1258: real time    0.1269
    SETDIJ:  cpu time    0.0100: real time    0.0100
    EDDIAG:  cpu time    7.0389: real time    7.0665
  RMM-DIIS:  cpu time    9.9926: real time   10.0316
    ORTHCH:  cpu time    2.8167: real time    2.8259
       DOS:  cpu time    0.0065: real time    0.0065
    CHARGE:  cpu time    1.3449: real time    1.3501
    MIXING:  cpu time    0.0025: real time    0.0034
    --------------------------------------------
      LOOP:  cpu time   21.3379: real time   21.4211

 eigenvalue-minimisations  : 14398
 total energy-change (2. order) : 0.1646884E+03  (-0.5684790E+02)
 number of electron     672.9999948 magnetization      65.3836548
 augmentation part      316.6835109 magnetization      48.2322562

 Broyden mixing:
  rms(total) = 0.89938E+01    rms(broyden)= 0.89937E+01
  rms(prec ) = 0.11052E+02
  weight for this iteration     100.00

 eigenvalues of (default mixing * dielectric matrix)
  average eigenvalue GAMMA=   0.5395
  0.8089  0.2700

 Free energy of the ion-electron system (eV)
  ---------------------------------------------------
  alpha Z        PSCENC =      1716.51401600
  Ewald energy   TEWEN  =    439226.47849104
  -Hartree energ DENC   =   -503501.92677363
  -exchange      EXHF   =         0.00000000
  -V(xc)+E(xc)   XCENC  =      1302.42285228
  PAW double counting   =     59900.87415621   -62635.53892191
  entropy T*S    EENTRO =        -0.00615302
  eigenvalues    EBANDS =     -4104.01485462
  atomic energy  EATOM  =     67564.59709734
  Solvation  Ediel_sol  =         0.00000000
  ---------------------------------------------------
  free energy    TOTEN  =      -530.60009029 eV

  energy without entropy =     -530.59393727  energy(sigma->0) =     -530.59855204


--------------------------------------------------------------------------------------------------------




--------------------------------------- Iteration      1(   8)  ---------------------------------------


    POTLOK:  cpu time    0.1259: real time    0.1267
    SETDIJ:  cpu time    0.0099: real time    0.0099
    EDDIAG:  cpu time    6.9972: real time    7.0250
  RMM-DIIS:  cpu time   10.0459: real time   10.0873
    ORTHCH:  cpu time    2.8117: real time    2.8223
       DOS:  cpu time    0.0052: real time    0.0052
    CHARGE:  cpu time    1.3374: real time    1.3424
    MIXING:  cpu time    0.0024: real time    0.0024
    --------------------------------------------
      LOOP:  cpu time   21.3355: real time   21.4213

 eigenvalue-minimisations  : 14451
 total energy-change (2. order) :-0.2229771E+03  (-0.1806364E+02)
 number of electron     672.9999939 magnetization      63.6602242
 augmentation part      310.8844742 magnetization      46.9655166

 Broyden mixing:
  rms(total) = 0.19083E+02    rms(broyden)= 0.19083E+02
  rms(prec ) = 0.23892E+02
  weight for this iteration     100.00

 eigenvalues of (default mixing * dielectric matrix)
  average eigenvalue GAMMA=   0.5189
  1.1734  0.3014  0.0819

 Free energy of the ion-electron system (eV)
  ---------------------------------------------------
  alpha Z        PSCENC =      1716.51401600
  Ewald energy   TEWEN  =    439226.47849104
  -Hartree energ DENC   =   -503217.84737627
  -exchange      EXHF   =         0.00000000
  -V(xc)+E(xc)   XCENC  =      1303.55812586
  PAW double counting   =     60675.67597090   -63425.38149870
  entropy T*S    EENTRO =         0.00565047
  eigenvalues    EBANDS =     -4597.17767073
  atomic energy  EATOM  =     67564.59709734
  Solvation  Ediel_sol  =         0.00000000
  ---------------------------------------------------
  free energy    TOTEN  =      -753.57719409 eV

  energy without entropy =     -753.58284456  energy(sigma->0) =     -753.57860670


--------------------------------------------------------------------------------------------------------




--------------------------------------- Iteration      1(   9)  ---------------------------------------


    POTLOK:  cpu time    0.1263: real time    0.1269
    SETDIJ:  cpu time    0.0096: real time    0.0097
    EDDIAG:  cpu time    6.9947: real time    7.0203
  RMM-DIIS:  cpu time    9.9064: real time    9.9460
    ORTHCH:  cpu time    2.8123: real time    2.8219
       DOS:  cpu time    0.0062: real time    0.0062
    CHARGE:  cpu time    1.3495: real time    1.3545
    MIXING:  cpu time    0.0029: real time    0.0034
    --------------------------------------------
      LOOP:  cpu time   21.2080: real time   21.2890

 eigenvalue-minimisations  : 14243
 total energy-change (2. order) : 0.1706742E+03  (-0.1777907E+02)
 number of electron     672.9999890 magnetization      62.6094946
 augmentation part      334.8332458 magnetization      44.4641911

 Broyden mixing:
  rms(total) = 0.12586E+02    rms(broyden)= 0.12586E+02
  rms(prec ) = 0.14223E+02
  weight for this iteration     100.00

 eigenvalues of (default mixing * dielectric matrix)
  average eigenvalue GAMMA=   0.4722
  1.3623  0.3307  0.1042  0.0914

 Free energy of the ion-electron system (eV)
  ---------------------------------------------------
  alpha Z        PSCENC =      1716.51401600
  Ewald energy   TEWEN  =    439226.47849104
  -Hartree energ DENC   =   -503079.55270934
  -exchange      EXHF   =         0.00000000
  -V(xc)+E(xc)   XCENC  =      1299.99603248
  PAW double counting   =     61518.79271014   -64267.98342964
  entropy T*S    EENTRO =        -0.00702422
  eigenvalues    EBANDS =     -4561.73817759
  atomic energy  EATOM  =     67564.59709734
  Solvation  Ediel_sol  =         0.00000000
  ---------------------------------------------------
  free energy    TOTEN  =      -582.90299378 eV

  energy without entropy =     -582.89596957  energy(sigma->0) =     -582.90123773


--------------------------------------------------------------------------------------------------------




--------------------------------------- Iteration      1(  10)  ---------------------------------------


    POTLOK:  cpu time    0.1248: real time    0.1256
    SETDIJ:  cpu time    0.0099: real time    0.0099
    EDDIAG:  cpu time    7.0430: real time    7.0692
  RMM-DIIS:  cpu time    9.9781: real time   10.0175
    ORTHCH:  cpu time    2.8139: real time    2.8229
       DOS:  cpu time    0.0048: real time    0.0048
    CHARGE:  cpu time    1.3295: real time    1.3345
    MIXING:  cpu time    0.0029: real time    0.0033
    --------------------------------------------
      LOOP:  cpu time   21.3069: real time   21.3877

 eigenvalue-minimisations  : 14380
 total energy-change (2. order) : 0.7182115E+02  (-0.9364585E+01)
 number of electron     672.9999930 magnetization      61.1890929
 augmentation part      353.6860968 magnetization      43.6185759

 Broyden mixing:
  rms(total) = 0.60918E+01    rms(broyden)= 0.60917E+01
  rms(prec ) = 0.66326E+01
  weight for this iteration     100.00

 eigenvalues of (default mixing * dielectric matrix)
  average eigenvalue GAMMA=   0.4745
  1.5765  0.4129  0.1533  0.1533  0.0763

 Free energy of the ion-electron system (eV)
  ---------------------------------------------------
  alpha Z        PSCENC =      1716.51401600
  Ewald energy   TEWEN  =    439226.47849104
  -Hartree energ DENC   =   -502941.31305970
  -exchange      EXHF   =         0.00000000
  -V(xc)+E(xc)   XCENC  =      1297.48518775
  PAW double counting   =     61985.24946806   -64730.28370328
  entropy T*S    EENTRO =         0.01810955
  eigenvalues    EBANDS =     -4629.82745370
  atomic energy  EATOM  =     67564.59709734
  Solvation  Ediel_sol  =         0.00000000
  ---------------------------------------------------
  free energy    TOTEN  =      -511.08184693 eV

  energy without entropy =     -511.09995648  energy(sigma->0) =     -511.08637431


--------------------------------------------------------------------------------------------------------




--------------------------------------- Iteration      1(  11)  ---------------------------------------


    POTLOK:  cpu time    0.1288: real time    0.1297
    SETDIJ:  cpu time    0.0095: real time    0.0096
    EDDIAG:  cpu time    7.0229: real time    7.0497
  RMM-DIIS:  cpu time    9.9955: real time   10.0373
    ORTHCH:  cpu time    2.8088: real time    2.8190
       DOS:  cpu time    0.0052: real time    0.0052
    CHARGE:  cpu time    1.3313: real time    1.3364
    MIXING:  cpu time    0.0030: real time    0.0030
    --------------------------------------------
      LOOP:  cpu time   21.3051: real time   21.3899

 eigenvalue-minimisations  : 14389
 total energy-change (2. order) : 0.3285786E+02  (-0.5101970E+01)
 number of electron     672.9999926 magnetization      59.6872356
 augmentation part      358.2027108 magnetization      41.4804727

 Broyden mixing:
  rms(total) = 0.45328E+01    rms(broyden)= 0.45327E+01
  rms(prec ) = 0.50649E+01
  weight for this iteration     100.00

 eigenvalues of (default mixing * dielectric matrix)
  average eigenvalue GAMMA=   0.4763
  1.7258  0.4930  0.2213  0.2213  0.1183  0.0781

 Free energy of the ion-electron system (eV)
  ---------------------------------------------------
  alpha Z        PSCENC =      1716.51401600
  Ewald energy   TEWEN  =    439226.47849104
  -Hartree energ DENC   =   -502999.43941610
  -exchange      EXHF   =         0.00000000
  -V(xc)+E(xc)   XCENC  =      1299.71051581
  PAW double counting   =     62702.94287528   -65468.25206710
  entropy T*S    EENTRO =        -0.01189286
  eigenvalues    EBANDS =     -4520.76360927
  atomic energy  EATOM  =     67564.59709734
  Solvation  Ediel_sol  =         0.00000000
  ---------------------------------------------------
  free energy    TOTEN  =      -478.22398986 eV

  energy without entropy =     -478.21209700  energy(sigma->0) =     -478.22101664


--------------------------------------------------------------------------------------------------------




--------------------------------------- Iteration      1(  12)  ---------------------------------------


    POTLOK:  cpu time    0.1255: real time    0.1264
    SETDIJ:  cpu time    0.0097: real time    0.0098
    EDDIAG:  cpu time    6.9915: real time    7.0257
  RMM-DIIS:  cpu time    9.9545: real time   10.0109
    ORTHCH:  cpu time    2.8258: real time    2.8415
       DOS:  cpu time    0.0047: real time    0.0048
    CHARGE:  cpu time    1.3295: real time    1.3369
    MIXING:  cpu time    0.0033: real time    0.0033
    --------------------------------------------
      LOOP:  cpu time   21.2446: real time   21.3591

 eigenvalue-minimisations  : 14360
 total energy-change (2. order) : 0.1592670E+02  (-0.1954312E+01)
 number of electron     672.9999920 magnetization      57.5526213
 augmentation part      352.3093133 magnetization      38.9106971

 Broyden mixing:
  rms(total) = 0.39308E+01    rms(broyden)= 0.39308E+01
  rms(prec ) = 0.45274E+01
  weight for this iteration     100.00

 eigenvalues of (default mixing * dielectric matrix)
  average eigenvalue GAMMA=   0.4780
  1.8360  0.5101  0.3244  0.3244  0.1371  0.1371  0.0772

 Free energy of the ion-electron system (eV)
  ---------------------------------------------------
  alpha Z        PSCENC =      1716.51401600
  Ewald energy   TEWEN  =    439226.47849104
  -Hartree energ DENC   =   -503243.47523682
  -exchange      EXHF   =         0.00000000
  -V(xc)+E(xc)   XCENC  =      1303.60333719
  PAW double counting   =     63392.66809602   -66183.76084661
  entropy T*S    EENTRO =        -0.00250820
  eigenvalues    EBANDS =     -4238.91973675
  atomic energy  EATOM  =     67564.59709734
  Solvation  Ediel_sol  =         0.00000000
  ---------------------------------------------------
  free energy    TOTEN  =      -462.29729078 eV

  energy without entropy =     -462.29478258  energy(sigma->0) =     -462.29666373


--------------------------------------------------------------------------------------------------------




--------------------------------------- Iteration      1(  13)  ---------------------------------------


    POTLOK:  cpu time    0.1273: real time    0.1282
    SETDIJ:  cpu time    0.0098: real time    0.0099
    EDDIAG:  cpu time    6.9975: real time    7.0261
  RMM-DIIS:  cpu time    9.9753: real time   10.0174
    ORTHCH:  cpu time    2.8074: real time    2.8181
       DOS:  cpu time    0.0052: real time    0.0052
    CHARGE:  cpu time    1.3400: real time    1.3454
    MIXING:  cpu time    0.0035: real time    0.0036
    --------------------------------------------
      LOOP:  cpu time   21.2660: real time   21.3538

 eigenvalue-minimisations  : 14458
 total energy-change (2. order) : 0.1386830E+02  (-0.1448608E+01)
 number of electron     672.9999927 magnetization      56.0858519
 augmentation part      345.7940668 magnetization      36.7415073

 Broyden mixing:
  rms(total) = 0.29352E+01    rms(broyden)= 0.29351E+01
  rms(prec ) = 0.32685E+01
  weight for this iteration     100.00

 eigenvalues of (default mixing * dielectric matrix)
  average eigenvalue GAMMA=   0.4808
  1.9236  0.5379  0.5379  0.3016  0.0773  0.1713  0.1713  0.1252

 Free energy of the ion-electron system (eV)
  ---------------------------------------------------
  alpha Z        PSCENC =      1716.51401600
  Ewald energy   TEWEN  =    439226.47849104
  -Hartree energ DENC   =   -503433.92588664
  -exchange      EXHF   =         0.00000000
  -V(xc)+E(xc)   XCENC  =      1309.12736038
  PAW double counting   =     64160.14132151   -66968.45960672
  entropy T*S    EENTRO =         0.00130454
  eigenvalues    EBANDS =     -4022.90308933
  atomic energy  EATOM  =     67564.59709734
  Solvation  Ediel_sol  =         0.00000000
  ---------------------------------------------------
  free energy    TOTEN  =      -448.42899188 eV

  energy without entropy =     -448.43029643  energy(sigma->0) =     -448.42931802


--------------------------------------------------------------------------------------------------------




--------------------------------------- Iteration      1(  14)  ---------------------------------------


    POTLOK:  cpu time    0.1269: real time    0.1277
    SETDIJ:  cpu time    0.0095: real time    0.0095
    EDDIAG:  cpu time    7.0003: real time    7.0248
  RMM-DIIS:  cpu time   10.1224: real time   10.1607
    ORTHCH:  cpu time    2.8072: real time    2.8157
       DOS:  cpu time    0.0058: real time    0.0059
    CHARGE:  cpu time    1.3325: real time    1.3369
    MIXING:  cpu time    0.0032: real time    0.0032
    --------------------------------------------
      LOOP:  cpu time   21.4077: real time   21.4843

 eigenvalue-minimisations  : 14587
 total energy-change (2. order) : 0.5277637E+01  (-0.7868798E+00)
 number of electron     672.9999931 magnetization      54.3585993
 augmentation part      342.9617790 magnetization      34.4754640

 Broyden mixing:
  rms(total) = 0.23159E+01    rms(broyden)= 0.23159E+01
  rms(prec ) = 0.26094E+01
  weight for this iteration     100.00

 eigenvalues of (default mixing * dielectric matrix)
  average eigenvalue GAMMA=   0.4940
  2.0193  0.6947  0.6947  0.2869  0.2071  0.2071  0.0772  0.1296  0.1296

 Free energy of the ion-electron system (eV)
  ---------------------------------------------------
  alpha Z        PSCENC =      1716.51401600
  Ewald energy   TEWEN  =    439226.47849104
  -Hartree energ DENC   =   -503532.21421773
  -exchange      EXHF   =         0.00000000
  -V(xc)+E(xc)   XCENC  =      1311.80868709
  PAW double counting   =     64507.91297847   -67316.06952715
  entropy T*S    EENTRO =         0.00142853
  eigenvalues    EBANDS =     -3922.18030852
  atomic energy  EATOM  =     67564.59709734
  Solvation  Ediel_sol  =         0.00000000
  ---------------------------------------------------
  free energy    TOTEN  =      -443.15135492 eV

  energy without entropy =     -443.15278346  energy(sigma->0) =     -443.15171205


--------------------------------------------------------------------------------------------------------




--------------------------------------- Iteration      1(  15)  ---------------------------------------


    POTLOK:  cpu time    0.1261: real time    0.1269
    SETDIJ:  cpu time    0.0097: real time    0.0098
    EDDIAG:  cpu time    7.0171: real time    7.0439
  RMM-DIIS:  cpu time   10.0722: real time   10.1142
    ORTHCH:  cpu time    2.8047: real time    2.8151
       DOS:  cpu time    0.0051: real time    0.0051
    CHARGE:  cpu time    1.3411: real time    1.3464
    MIXING:  cpu time    0.0041: real time    0.0041
    --------------------------------------------
      LOOP:  cpu time   21.3801: real time   21.4655

 eigenvalue-minimisations  : 14483
 total energy-change (2. order) : 0.2161374E+01  (-0.5497510E+00)
 number of electron     672.9999926 magnetization      52.6143907
 augmentation part      341.5540253 magnetization      32.2115215

 Broyden mixing:
  rms(total) = 0.21399E+01    rms(broyden)= 0.21399E+01
  rms(prec ) = 0.24256E+01
  weight for this iteration     100.00

 eigenvalues of (default mixing * dielectric matrix)
  average eigenvalue GAMMA=   0.4826
  2.0505  0.7348  0.7348  0.3746  0.2317  0.2317  0.0773  0.1384  0.1384  0.1140

 Free energy of the ion-electron system (eV)
  ---------------------------------------------------
  alpha Z        PSCENC =      1716.51401600
  Ewald energy   TEWEN  =    439226.47849104
  -Hartree energ DENC   =   -503636.07170965
  -exchange      EXHF   =         0.00000000
  -V(xc)+E(xc)   XCENC  =      1313.75095466
  PAW double counting   =     64731.99880426   -67529.19655982
  entropy T*S    EENTRO =         0.00974349
  eigenvalues    EBANDS =     -3829.07081776
  atomic energy  EATOM  =     67564.59709734
  Solvation  Ediel_sol  =         0.00000000
  ---------------------------------------------------
  free energy    TOTEN  =      -440.98998043 eV

  energy without entropy =     -440.99972393  energy(sigma->0) =     -440.99241631


--------------------------------------------------------------------------------------------------------




--------------------------------------- Iteration      1(  16)  ---------------------------------------


    POTLOK:  cpu time    0.1263: real time    0.1273
    SETDIJ:  cpu time    0.0097: real time    0.0098
    EDDIAG:  cpu time    7.0019: real time    7.0288
  RMM-DIIS:  cpu time   10.0831: real time   10.1246
    ORTHCH:  cpu time    2.8118: real time    2.8228
       DOS:  cpu time    0.0052: real time    0.0052
    CHARGE:  cpu time    1.3338: real time    1.3395
    MIXING:  cpu time    0.0042: real time    0.0045
    --------------------------------------------
      LOOP:  cpu time   21.3761: real time   21.4626

 eigenvalue-minimisations  : 14456
 total energy-change (2. order) : 0.2384928E+01  (-0.3557855E+00)
 number of electron     672.9999931 magnetization      51.2807019
 augmentation part      341.4203676 magnetization      30.3541429

 Broyden mixing:
  rms(total) = 0.20057E+01    rms(broyden)= 0.20057E+01
  rms(prec ) = 0.22044E+01
  weight for this iteration     100.00

 eigenvalues of (default mixing * dielectric matrix)
  average eigenvalue GAMMA=   0.4739
  2.0423  0.7446  0.7446  0.5672  0.2501  0.2501  0.0773  0.1514  0.1514  0.1238
  0.1103

 Free energy of the ion-electron system (eV)
  ---------------------------------------------------
  alpha Z        PSCENC =      1716.51401600
  Ewald energy   TEWEN  =    439226.47849104
  -Hartree energ DENC   =   -503729.46058015
  -exchange      EXHF   =         0.00000000
  -V(xc)+E(xc)   XCENC  =      1315.22219425
  PAW double counting   =     64871.42795212   -67654.65430238
  entropy T*S    EENTRO =         0.03159976
  eigenvalues    EBANDS =     -3748.76152018
  atomic energy  EATOM  =     67564.59709734
  Solvation  Ediel_sol  =         0.00000000
  ---------------------------------------------------
  free energy    TOTEN  =      -438.60505219 eV

  energy without entropy =     -438.63665195  energy(sigma->0) =     -438.61295213


--------------------------------------------------------------------------------------------------------




--------------------------------------- Iteration      1(  17)  ---------------------------------------


    POTLOK:  cpu time    0.1266: real time    0.1274
    SETDIJ:  cpu time    0.0098: real time    0.0098
    EDDIAG:  cpu time    7.0334: real time    7.0595
  RMM-DIIS:  cpu time   10.0256: real time   10.0676
    ORTHCH:  cpu time    2.8086: real time    2.8191
       DOS:  cpu time    0.0049: real time    0.0049
    CHARGE:  cpu time    1.3379: real time    1.3431
    MIXING:  cpu time    0.0040: real time    0.0040
    --------------------------------------------
      LOOP:  cpu time   21.3508: real time   21.4354

 eigenvalue-minimisations  : 14411
 total energy-change (2. order) : 0.1959422E+01  (-0.2934589E+00)
 number of electron     672.9999931 magnetization      48.4464283
 augmentation part      341.9599769 magnetization      27.3592821

 Broyden mixing:
  rms(total) = 0.14615E+01    rms(broyden)= 0.14614E+01
  rms(prec ) = 0.15407E+01
  weight for this iteration     100.00

 eigenvalues of (default mixing * dielectric matrix)
  average eigenvalue GAMMA=   0.4948
  2.0037  0.9057  0.9057  0.7633  0.2908  0.2908  0.1723  0.1723  0.0773  0.1277
  0.1277  0.1005

 Free energy of the ion-electron system (eV)
  ---------------------------------------------------
  alpha Z        PSCENC =      1716.51401600
  Ewald energy   TEWEN  =    439226.47849104
  -Hartree energ DENC   =   -503793.80651268
  -exchange      EXHF   =         0.00000000
  -V(xc)+E(xc)   XCENC  =      1315.80019804
  PAW double counting   =     64940.85802100   -67715.34207523
  entropy T*S    EENTRO =         0.01625131
  eigenvalues    EBANDS =     -3691.76111745
  atomic energy  EATOM  =     67564.59709734
  Solvation  Ediel_sol  =         0.00000000
  ---------------------------------------------------
  free energy    TOTEN  =      -436.64563061 eV

  energy without entropy =     -436.66188192  energy(sigma->0) =     -436.64969344


--------------------------------------------------------------------------------------------------------




--------------------------------------- Iteration      1(  18)  ---------------------------------------


    POTLOK:  cpu time    0.1231: real time    0.1239
    SETDIJ:  cpu time    0.0095: real time    0.0096
    EDDIAG:  cpu time    7.0101: real time    7.0344
  RMM-DIIS:  cpu time    9.9054: real time    9.9431
[...]
    FORCOR:  cpu time    0.1320: real time    0.1326
    FORHAR:  cpu time    0.0294: real time    0.0295
    MIXING:  cpu time    0.0132: real time    0.0132
    OFIELD:  cpu time    0.0000: real time    0.0000

  FORCE on cell =-STRESS in cart. coord.  units (eV):
  Direction    XX          YY          ZZ          XY          YZ          ZX
  --------------------------------------------------------------------------------------
  Alpha Z  1716.51402  1716.51402  1716.51402
  Ewald  477247.06549477798.62864************  -279.00883   168.46629   -14.40122
  Hartree492647.20274493071.55213************  -290.88941   162.74245    -8.21539
  E(xc)   -3552.08059 -3554.43853 -3559.72336     1.46174    -0.22829     0.35246
  Local  ************************992451.84059   574.54660  -332.46276    22.96853
  n-local -2000.82739 -1994.61973 -2015.58456     8.39241    -1.44855     0.01575
  augment  2900.83143  2900.84321  2928.04813    -3.32290     0.32354    -0.30106
  Kinetic  6394.40893  6405.11073  6449.88541   -12.91931     2.57150    -0.46024
  Fock        0.00000     0.00000     0.00000     0.00000     0.00000     0.00000
  -------------------------------------------------------------------------------------
  Total     -31.44454    -6.49512    -0.28503    -1.73970    -0.03582    -0.04116
  in kB     -17.14253    -3.54092    -0.15539    -0.94843    -0.01953    -0.02244
  external pressure =       -6.95 kB  Pullay stress =        0.00 kB


 VOLUME and BASIS-vectors are now :
 -----------------------------------------------------------------------------
  energy-cutoff  :      600.00
  volume of cell :     2938.87
      direct lattice vectors                 reciprocal lattice vectors
     7.778498173  0.000000000  0.000000000     0.128559521  0.000000000  0.000000000
     0.000000000 13.137704849  0.000000000     0.000000000  0.076116796  0.000000000
     0.000000000  0.000000000 28.758470535     0.000000000  0.000000000  0.034772364

  length of vectors
     7.778498173 13.137704849 28.758470535     0.128559521  0.076116796  0.034772364


 FORCES acting on ions
    electron-ion (+dipol)            ewald-force                    non-local-force                 convergence-correction
 -----------------------------------------------------------------------------------------------
   -.196E+03 -.140E+03 -.312E+04   0.197E+03 0.140E+03 0.312E+04   -.191E+00 -.497E+00 -.255E+00   0.163E-01 -.270E-01 0.146E-02
   -.114E+03 0.320E+02 -.324E+04   0.115E+03 -.327E+02 0.324E+04   -.400E+00 0.738E+00 -.878E+00   0.922E-02 0.215E-01 -.984E-02
   -.521E+02 0.138E+03 -.121E+04   0.526E+02 -.138E+03 0.121E+04   -.491E+00 -.588E+00 0.320E+00   0.187E-01 -.293E-02 -.526E-01
   -.114E+03 -.255E+02 -.121E+04   0.115E+03 0.253E+02 0.121E+04   -.443E+00 0.222E+00 0.929E-01   0.558E-01 -.117E-01 -.476E-01
   0.322E+02 -.339E+02 0.769E+03   -.318E+02 0.332E+02 -.769E+03   -.411E+00 0.733E+00 0.556E+00   -.134E-02 0.173E-01 -.217E-01
   -.258E+02 -.601E+02 -.320E+04   0.252E+02 0.607E+02 0.320E+04   0.553E+00 -.571E+00 0.126E+00   0.106E-01 -.380E-01 0.187E-01
   -.334E+02 0.700E+02 0.979E+03   0.331E+02 -.699E+02 -.980E+03   0.221E+00 -.102E+00 0.397E+00   0.549E-02 -.602E-01 -.165E-01
   0.162E+03 -.175E+02 -.126E+04   -.162E+03 0.161E+02 0.126E+04   -.966E-02 0.145E+01 0.588E+00   -.448E-01 -.334E-01 -.508E-01
   0.221E+02 -.892E+02 0.318E+04   -.212E+02 0.897E+02 -.318E+04   -.822E+00 -.567E+00 0.166E+00   0.111E-01 0.311E-01 0.207E-01
   -.152E+03 -.963E+02 -.105E+04   0.151E+03 0.963E+02 0.105E+04   0.339E+00 0.204E-01 0.226E+00   0.588E-01 -.310E-01 -.447E-01
   -.741E+02 -.599E+02 -.321E+04   0.741E+02 0.595E+02 0.321E+04   -.251E-01 0.362E+00 -.475E+00   0.400E-02 0.585E-01 -.117E-01
   0.561E+01 -.128E+03 0.100E+04   -.540E+01 0.128E+03 -.100E+04   -.108E+00 0.399E+00 0.269E-01   -.213E-01 -.766E-01 0.210E-02
   0.223E+02 0.221E+02 -.139E+04   -.229E+02 -.209E+02 0.139E+04   0.601E+00 -.120E+01 0.126E+01   0.108E-01 0.345E-01 -.523E-01
   0.125E+02 0.164E+03 -.324E+04   -.131E+02 -.164E+03 0.324E+04   0.633E+00 -.632E+00 -.149E+01   -.102E-01 0.181E-01 -.748E-02
   0.925E+01 0.763E+02 0.941E+03   -.902E+01 -.763E+02 -.940E+03   -.236E+00 -.746E-01 -.132E+00   -.405E-02 0.208E-01 -.181E-01
   0.993E+02 -.584E+02 -.316E+04   -.996E+02 0.581E+02 0.316E+04   0.296E+00 0.370E+00 -.763E-02   -.775E-02 -.198E-01 0.198E-02
   -.476E+02 -.459E+02 -.118E+04   0.476E+02 0.452E+02 0.118E+04   -.266E-02 0.640E+00 0.133E-01   -.849E-03 0.320E-01 -.700E-01
   -.993E+01 -.610E+02 0.701E+03   0.989E+01 0.609E+02 -.701E+03   0.583E-01 0.142E-01 0.495E+00   -.782E-02 0.566E-01 -.139E-01
   0.127E+02 -.495E+02 0.312E+04   -.127E+02 0.500E+02 -.312E+04   -.379E-01 -.527E+00 -.482E+00   -.171E-01 0.306E-01 0.126E-01
   -.455E+02 0.126E+03 0.311E+04   0.459E+02 -.125E+03 -.311E+04   -.311E+00 -.950E+00 0.211E+01   -.233E-01 -.732E-01 -.214E-02
   -.562E+02 -.275E+02 0.863E+03   0.557E+02 0.273E+02 -.864E+03   0.457E+00 0.232E+00 0.844E+00   0.119E-01 0.621E-02 -.199E-01
   0.321E+02 0.409E+02 0.934E+03   -.329E+02 -.411E+02 -.934E+03   0.712E+00 0.218E+00 -.107E+00   -.802E-02 -.269E-01 -.280E-01
   0.135E+03 0.634E+02 -.319E+04   -.135E+03 -.635E+02 0.319E+04   0.102E+00 0.137E+00 -.245E+00   -.100E-02 0.865E-02 -.131E-01
   0.139E+03 -.132E+02 -.326E+04   -.139E+03 0.127E+02 0.326E+04   0.811E+00 0.430E+00 -.589E+00   -.629E-03 0.585E-01 -.781E-02
   0.168E+03 0.106E+03 -.113E+04   -.167E+03 -.105E+03 0.113E+04   -.459E+00 -.599E+00 0.533E-02   -.187E-01 -.118E-01 -.415E-01
   0.170E+03 0.504E+02 -.133E+04   -.169E+03 -.508E+02 0.133E+04   -.635E+00 0.342E+00 0.343E+00   0.369E-02 0.234E-01 -.588E-01
   -.115E+03 -.787E+02 -.131E+04   0.114E+03 0.794E+02 0.131E+04   0.129E+01 -.750E+00 0.721E+00   -.217E-02 0.353E-01 -.583E-01
   0.210E+02 -.298E+02 0.107E+04   -.210E+02 0.300E+02 -.107E+04   -.111E+00 -.165E+00 -.120E+01   0.134E-01 -.426E-01 -.558E-01
   0.125E+02 -.788E+02 0.875E+03   -.138E+02 0.802E+02 -.874E+03   0.135E+01 -.136E+01 -.645E+00   -.445E-02 0.541E-01 -.841E-02
   0.512E+01 -.494E+02 0.309E+04   -.484E+01 0.493E+02 -.309E+04   -.247E+00 0.470E-01 0.742E+00   -.152E-01 0.161E-01 0.307E-01
   -.213E+03 -.444E+02 -.312E+04   0.214E+03 0.444E+02 0.312E+04   -.108E+01 0.509E-03 -.128E+01   0.227E-01 -.410E-01 -.200E-01
   0.307E+02 -.650E+02 0.312E+04   -.310E+02 0.652E+02 -.312E+04   0.322E+00 -.205E+00 -.893E+00   0.727E-02 0.364E-01 0.265E-01
   0.343E+02 -.480E+02 -.123E+04   -.346E+02 0.473E+02 0.122E+04   0.243E+00 0.709E+00 0.152E+01   0.181E-02 0.501E-01 -.447E-01
   -.513E+02 -.407E+02 0.993E+03   0.510E+02 0.403E+02 -.993E+03   0.350E+00 0.521E+00 0.857E-01   -.233E-01 -.108E-01 -.154E-01
   -.576E+02 0.578E+01 -.103E+04   0.575E+02 -.591E+01 0.103E+04   0.122E+00 0.127E+00 -.345E+00   0.770E-02 0.688E-02 -.546E-01
   -.272E+02 -.111E+03 0.322E+04   0.264E+02 0.111E+03 -.322E+04   0.811E+00 -.871E-01 0.162E+01   0.387E-02 0.449E-01 0.554E-02
   0.564E+02 0.137E+03 0.314E+04   -.563E+02 -.138E+03 -.315E+04   -.125E+00 0.792E+00 0.989E+00   0.317E-02 -.466E-01 0.214E-02
   0.212E+02 0.106E+03 -.119E+04   -.213E+02 -.105E+03 0.119E+04   0.169E+00 -.138E+01 0.157E+01   -.301E-01 0.844E-02 -.409E-01
   0.207E+03 0.124E+03 -.321E+04   -.206E+03 -.125E+03 0.321E+04   -.124E+01 0.181E+01 -.160E+01   -.265E-01 -.249E-01 -.123E-01
   0.333E+02 -.624E+02 0.315E+04   -.333E+02 0.623E+02 -.315E+04   0.646E-01 0.156E+00 -.718E+00   -.693E-02 -.163E-01 0.247E-01
   0.548E+02 0.151E+03 0.310E+04   -.548E+02 -.151E+03 -.310E+04   -.886E-01 0.767E+00 0.624E+00   0.202E-01 -.174E-01 0.568E-02
   0.108E+03 -.616E+02 0.951E+03   -.108E+03 0.614E+02 -.950E+03   -.592E+00 0.251E+00 -.449E+00   -.263E-02 -.162E-03 0.894E-02
   0.142E+01 -.754E+02 0.901E+03   -.268E+00 0.757E+02 -.900E+03   -.118E+01 -.301E+00 -.754E+00   0.118E-01 0.340E-01 -.998E-02
   -.143E+03 -.844E+02 -.319E+04   0.144E+03 0.849E+02 0.319E+04   -.447E+00 -.525E+00 -.305E+00   0.915E-02 0.141E-01 0.302E-02
   -.761E+02 0.792E+02 0.911E+03   0.761E+02 -.794E+02 -.912E+03   -.112E+00 0.272E+00 0.540E+00   -.740E-02 -.374E-01 0.186E-01
   0.194E+02 0.190E+01 0.315E+04   -.194E+02 -.129E+01 -.315E+04   -.298E-02 -.608E+00 -.955E+00   0.794E-02 0.161E-01 0.233E-01
   -.456E+02 -.735E+02 0.310E+04   0.458E+02 0.734E+02 -.310E+04   -.227E+00 0.806E-01 -.690E+00   -.956E-02 0.507E-01 0.280E-01
   0.259E+02 0.273E+02 0.917E+03   -.259E+02 -.261E+02 -.916E+03   -.316E-01 -.115E+01 -.117E+01   -.860E-02 0.284E-01 -.857E-03
   -.458E+02 0.264E+02 -.105E+04   0.453E+02 -.260E+02 0.105E+04   0.520E+00 -.357E+00 -.269E+00   -.132E-01 -.455E-01 -.439E-01
   -.296E+02 -.131E+03 0.308E+04   0.295E+02 0.131E+03 -.308E+04   0.556E-01 -.946E-01 0.773E-01   0.591E-02 0.162E-01 0.319E-01
   0.125E+03 -.848E+02 -.103E+04   -.124E+03 0.848E+02 0.103E+04   -.353E+00 -.321E-01 -.883E-01   -.519E-01 -.412E-01 -.437E-01
   -.614E+02 -.437E+02 0.312E+04   0.623E+02 0.428E+02 -.312E+04   -.926E+00 0.926E+00 -.622E+00   0.156E-01 -.131E-01 0.114E-01
   -.700E-02 0.524E+02 0.841E+03   -.901E+00 -.520E+02 -.841E+03   0.919E+00 -.395E+00 0.735E+00   -.172E-01 0.274E-01 0.452E-02
   0.298E+03 0.837E+01 -.426E+04   -.296E+03 -.624E+01 0.425E+04   -.142E+01 -.207E+01 0.597E+01   -.322E-01 -.656E-01 -.264E-01
   -.178E+02 0.898E+02 0.408E+04   0.180E+02 -.899E+02 -.408E+04   -.221E+00 0.620E-01 -.467E+01   -.521E-01 -.395E-01 -.168E-01
   -.248E+03 0.642E+02 -.424E+04   0.246E+03 -.642E+02 0.423E+04   0.217E+01 -.372E-01 0.572E+01   0.217E-01 -.163E-01 -.505E-02
   -.335E+02 0.186E+03 0.438E+04   0.342E+02 -.186E+03 -.438E+04   -.680E+00 0.293E+00 -.650E+01   0.243E-01 -.670E-02 -.182E-01
   -.227E+02 0.152E+03 0.128E+04   0.228E+02 -.152E+03 -.128E+04   -.126E+00 0.144E+00 0.782E+00   0.285E-01 0.428E-01 0.724E-02
   0.621E+02 -.346E+02 -.189E+04   -.620E+02 0.346E+02 0.189E+04   -.475E-01 0.214E-01 0.342E+01   -.530E-02 -.266E-01 -.121E-01
   0.211E+02 -.718E+02 -.688E+03   -.211E+02 0.722E+02 0.689E+03   0.306E-01 -.298E+00 -.933E+00   -.429E-02 -.385E-01 -.175E-01
   -.812E+02 0.205E+02 -.781E+03   0.820E+02 -.207E+02 0.782E+03   -.825E+00 0.218E+00 -.356E+00   -.890E-03 0.206E-01 -.314E-01
   0.128E+02 -.313E+02 0.184E+04   -.125E+02 0.314E+02 -.184E+04   -.273E+00 -.540E-01 -.280E+01   0.131E-02 0.217E-01 0.990E-02
   0.596E+02 0.249E+02 -.841E+03   -.605E+02 -.250E+02 0.841E+03   0.886E+00 0.121E+00 -.360E+00   0.103E-02 0.258E-01 -.319E-01
   -.454E+02 0.404E+02 -.193E+04   0.453E+02 -.403E+02 0.192E+04   0.117E+00 -.904E-01 0.372E+01   -.170E-02 0.268E-01 -.431E-02
   0.621E+02 -.459E+02 -.189E+04   -.611E+02 0.449E+02 0.189E+04   -.947E+00 0.968E+00 0.294E+01   -.278E-03 0.171E-01 -.137E-01
   0.296E+02 0.534E+02 0.662E+03   -.299E+02 -.533E+02 -.663E+03   0.253E+00 -.332E-01 0.101E+01   0.111E-01 -.525E-02 -.992E-02
   0.590E+01 0.769E+01 -.190E+04   -.615E+01 -.777E+01 0.189E+04   0.253E+00 0.650E-01 0.248E+01   -.483E-02 0.477E-02 -.399E-02
   -.702E+02 0.204E+02 -.696E+03   0.704E+02 -.205E+02 0.696E+03   -.159E+00 0.155E+00 -.690E+00   0.543E-02 -.140E-01 -.200E-01
   0.246E+02 0.127E+02 0.185E+04   -.248E+02 -.124E+02 -.185E+04   0.158E+00 -.371E+00 -.345E+01   -.590E-02 -.678E-02 0.119E-01
   -.821E+01 0.107E+01 0.185E+04   0.774E+01 -.843E+00 -.185E+04   0.457E+00 -.145E+00 -.273E+01   0.117E-01 -.306E-01 0.174E-02
   -.368E+02 -.269E+02 0.574E+03   0.370E+02 0.270E+02 -.575E+03   -.283E+00 -.588E-01 0.606E+00   0.153E-01 -.983E-02 -.237E-01
 -----------------------------------------------------------------------------------------------
   0.103E+01 0.208E+01 -.345E+01   0.000E+00 -.462E-13 0.114E-12   -.991E+00 -.205E+01 0.431E+01   -.259E-01 0.709E-02 -.919E+00
 
 
 POSITION                                       TOTAL-FORCE (eV/Angst)
 -----------------------------------------------------------------------------------
      0.09948      6.24349      6.91821        -0.000120      0.002055      0.000651
      1.49506     12.82024      7.08279        -0.004118     -0.004274      0.003886
      0.13358      0.36452      5.01565         0.001024     -0.003870     -0.000684
      1.46288      2.54253      4.96646         0.002496     -0.001164     -0.003004
      1.41382     12.82232      2.94549         0.000860     -0.002008      0.001071
      6.64003      4.08833      6.93954         0.000893     -0.000947     -0.000281
      1.41457      4.06383      2.79719        -0.054184     -0.024903     -0.041869
      4.03301      2.56693      4.96554        -0.001204      0.000365     -0.000942
      5.38075      9.24278      0.71169         0.004487     -0.023695      0.008629
      0.12744      4.71081      4.87247         0.000596     -0.005967     -0.001218
      5.30031     10.62047      7.01442        -0.003398     -0.005078     -0.000737
      4.02729      3.93666      2.80194         0.078594     -0.069129      0.001046
      2.72357      0.43729      4.99415        -0.006910     -0.001080     -0.001756
      6.62337     12.81399      7.08059         0.000414      0.000135      0.000887
      6.60979      8.41264      2.76411        -0.010880     -0.001598      0.052444
      5.32503      6.21978      6.91088         0.001632      0.004775     -0.002012
      5.34964      9.12612      4.89651        -0.002363      0.002367      0.004468
      0.13457     10.63518      2.91196         0.002143     -0.003151      0.004623
      0.14422      9.22923      0.79266         0.006456     -0.018954     -0.024261
      2.77871      4.70328      0.72574         0.054314      0.013329      0.077828
      6.61726     12.80419      2.86751         0.000787      0.000602      0.001868
      0.11461      6.18628      2.75108        -0.099788     -0.011900      0.041242
      4.05884      8.43410      6.92819         0.004753     -0.002452      0.001068
      2.80512     10.60944      7.09557        -0.001135     -0.000032      0.000707
      4.05176      6.92210      4.88675         0.002270     -0.000399      0.004771
      2.75665      9.15814      4.97118         0.001735      0.000848      0.004013
      0.11132      9.10961      4.90884        -0.003913      0.005177      0.002935
      6.63818      3.96691      2.81648        -0.057141     -0.005116      0.023048
      2.65531     10.63517      2.83430         0.075532      0.004220      0.045031
      2.66192      0.32919      0.88456         0.023484     -0.019394     -0.071461
      1.37705      4.14743      6.92678         0.003837     -0.002214      0.001857
      6.60150     11.37216      0.82930         0.009724     -0.000716     -0.027115
      4.01335     11.29651      4.90501        -0.000099     -0.002785     -0.001675
      5.32098      1.83034      2.83911         0.055930      0.096038     -0.030995
      6.60456      6.92989      4.83684         0.001896      0.002986     -0.001323
      2.70894      9.20606      0.66071         0.012526      0.001694     -0.025418
      0.11363      4.68562      0.72988        -0.009759     -0.008760     -0.000934
      5.32600      0.41066      4.89591         0.000837     -0.003098      0.001943
      5.37648      1.79132      6.93327        -0.001408     -0.000507     -0.000278
      4.01180      2.43913      0.81050        -0.034860     -0.018441     -0.007146
      6.62988      7.02267      0.69623         0.019002     -0.019632      0.009213
      2.71911      1.83235      2.87435         0.002931      0.003490      0.003484
      5.38517     10.60422      2.82717        -0.019075      0.033782      0.042633
      6.61407      8.40991      6.93706        -0.001272      0.001456      0.002910
      2.75075      6.21700      2.72905        -0.036058      0.118449     -0.074909
      5.29931      0.33988      0.82306         0.001492      0.014148     -0.003777
      1.44012     11.34383      0.85416        -0.009356      0.007437     -0.023733
      4.02411     12.81005      2.87660        -0.000683     -0.003410     -0.000951
      6.58894      2.58275      4.94227         0.001167     -0.000616     -0.001425
      0.16465      0.33401      0.83661         0.017150      0.060058      0.013153
      5.33385      4.72591      4.91305        -0.000681     -0.002462     -0.002000
      6.65773      2.46519      0.77459         0.022050     -0.015672      0.038884
      1.38750      8.46756      2.77258        -0.006387      0.000637      0.054157
      4.10731      3.86517      7.13625         0.004841     -0.004766     -0.003745
      1.37429      6.93127      0.68822        -0.014177      0.009853     -0.009090
      0.16642      1.91921      7.02535         0.000774      0.000568      0.000661
      4.17387      7.03491      0.25378         0.009468     -0.018331      0.012775
      3.95023      8.52327      2.74364         0.029278     -0.023316     -0.001319
      2.77780      6.24027      7.06849        -0.000391     -0.002799      0.000620
      2.75139      4.71540      4.86009         0.004261     -0.003864     -0.001648
      6.53013     11.36410      4.96816         0.001509     -0.002603     -0.000049
      4.04507     11.36964      0.92515        -0.001847      0.010037     -0.056995
      1.47088     11.32057      5.05939        -0.002717     -0.000930      0.003409
      0.10097     10.66238      7.14130         0.001866      0.001995     -0.001034
      4.05509     12.79823      6.83877         0.001406      0.000274      0.005802
      5.32598      6.17665      2.70407        -0.040424     -0.015583      0.025436
      1.46052      8.39636      6.99190         0.002646     -0.006614      0.002883
      1.37133      6.95020      4.76453         0.001226     -0.002434     -0.002390
      1.46838      2.54604      0.81071        -0.038352     -0.078137     -0.032146
      5.32330      4.58808      0.74783        -0.003727      0.046487     -0.042922
      0.12396      1.80937      2.91027        -0.001860     -0.000464      0.001204
 -----------------------------------------------------------------------------------
    total drift:                                0.015343      0.036661     -0.059967


--------------------------------------------------------------------------------------------------------



  FREE ENERGIE OF THE ION-ELECTRON SYSTEM (eV)
  ---------------------------------------------------
  free  energy   TOTEN  =      -489.51222192 eV

  energy  without entropy=     -489.50498288  energy(sigma->0) =     -489.51041216
 


--------------------------------------------------------------------------------------------------------


    POTLOK:  cpu time    0.1398: real time    0.1404


--------------------------------------------------------------------------------------------------------




--------------------------------------------------------------------------------------------------------


  
 reached required accuracy - stopping structural energy minimisation
     LOOP+:  cpu time 1390.1276: real time 1395.8054
    4ORBIT:  cpu time    0.0000: real time    0.0000

 total amount of memory used by VASP MPI-rank0   244530. kBytes
=======================================================================

   base      :      30000. kBytes
   nonlr-proj:       7160. kBytes
   fftplans  :       5432. kBytes
   grid      :      14801. kBytes
   one-center:        155. kBytes
   wavefun   :     186982. kBytes
 
  
  
 General timing and accounting informations for this job:
 ========================================================
  
                  Total CPU time used (sec):     1439.734
                            User time (sec):     1336.687
                          System time (sec):      103.047
                         Elapsed time (sec):     1446.721
  
                   Maximum memory used (kb):      449808.
                   Average memory used (kb):           0.
  
                          Minor page faults:       261744
                          Major page faults:           18
                 Voluntary context switches:        10319
