 vasp.5.4.4.18Apr17-6-g9f103f2a35 (build Jan 21 2021 13:12:21) complex          
  
 executed on             LinuxIFC date 2021.12.20  21:51:23
 running on   16 total cores
 distrk:  each k-point on   16 cores,    1 groups
 distr:  one band on NCORES_PER_BAND=   1 cores,   16 groups


--------------------------------------------------------------------------------------------------------


 INCAR:
 POTCAR:    PAW_PBE Nb_sv 25May2007               
 POTCAR:    PAW_PBE Cl 17Jan2003                  

 ----------------------------------------------------------------------------- 
|                                                                             |
|           W    W    AA    RRRRR   N    N  II  N    N   GGGG   !!!           |
|           W    W   A  A   R    R  NN   N  II  NN   N  G    G  !!!           |
|           W    W  A    A  R    R  N N  N  II  N N  N  G       !!!           |
|           W WW W  AAAAAA  RRRRR   N  N N  II  N  N N  G  GGG   !            |
|           WW  WW  A    A  R   R   N   NN  II  N   NN  G    G                |
|           W    W  A    A  R    R  N    N  II  N    N   GGGG   !!!           |
|                                                                             |
|      For optimal performance we recommend to set                            |
|        NCORE= 4 - approx SQRT( number of cores)                             |
|      NCORE specifies how many cores store one orbital (NPAR=cpu/NCORE).     |
|      This setting can  greatly improve the performance of VASP for DFT.     |
|      The default,   NCORE=1            might be grossly inefficient         |
|      on modern multi-core architectures or massively parallel machines.     |
|      Do your own testing !!!!                                               |
|      Unfortunately you need to use the default for GW and RPA calculations. |
|      (for HF NCORE is supported but not extensively tested yet)             |
|                                                                             |
 ----------------------------------------------------------------------------- 

 POTCAR:    PAW_PBE Nb_sv 25May2007               
   VRHFIN =Nb: 4p5s4d                                                           
   LEXCH  = PE                                                                  
   EATOM  =  1555.1913 eV,  114.3033 Ry                                         
                                                                                
   TITEL  = PAW_PBE Nb_sv 25May2007                                             
   LULTRA =        F    use ultrasoft PP ?                                      
   IUNSCR =        1    unscreen: 0-lin 1-nonlin 2-no                           
   RPACOR =    1.800    partial core radius                                     
   POMASS =   92.910; ZVAL   =   13.000    mass and valenz                      
   RCORE  =    2.400    outmost cutoff radius                                   
   RWIGS  =    2.400; RWIGS  =    1.270    wigner-seitz radius (au A)           
   ENMAX  =  293.235; ENMIN  =  219.927 eV                                      
   ICORE  =        3    local potential                                         
   LCOR   =        T    correct aug charges                                     
   LPAW   =        T    paw PP                                                  
   EAUG   =  455.659                                                            
   DEXC   =    0.000                                                            
   RMAX   =    2.456    core radius for proj-oper                               
   RAUG   =    1.300    factor for augmentation sphere                          
   RDEP   =    2.451    radius for radial grids                                 
   RDEPT  =    1.956    core radius for aug-charge                              
                                                                                
   Atomic configuration                                                         
   11 entries                                                                   
     n  l   j            E        occ.                                          
     1  0  0.50    -18805.2457   2.0000                                         
     2  0  0.50     -2630.2869   2.0000                                         
     2  1  1.50     -2348.4046   6.0000                                         
     3  0  0.50      -438.8757   2.0000                                         
     3  1  1.50      -346.7588   6.0000                                         
     3  2  2.50      -196.2560  10.0000                                         
     4  0  0.50       -58.3859   2.0000                                         
     5  0  0.50        -3.9816   1.0000                                         
     4  1  1.50       -34.5141   6.0000                                         
     4  2  2.50        -3.0408   4.0000                                         
     4  3  2.50        -1.3606   0.0000                                         
   Description                                                                  
     l       E           TYP  RCUT    TYP  RCUT                                 
     0    -58.3859094     23  2.200                                             
     0     -3.9816262     23  2.200                                             
     1    -34.5140738     23  2.200                                             
     1     13.6058260     23  2.200                                             
     2     -3.0408010     23  2.200                                             
     2     -0.1283038     23  2.200                                             
     3     -1.3605826     23  2.400                                             
  local pseudopotential read in
  partial core-charges read in
  partial kinetic energy density read in
  atomic valenz-charges read in
  non local Contribution for L=           0  read in
    real space projection operators read in
  non local Contribution for L=           0  read in
    real space projection operators read in
  non local Contribution for L=           1  read in
    real space projection operators read in
  non local Contribution for L=           1  read in
    real space projection operators read in
  non local Contribution for L=           2  read in
    real space projection operators read in
  non local Contribution for L=           2  read in
    real space projection operators read in
    PAW grid and wavefunctions read in
 
   number of l-projection  operators is LMAX  =           6
   number of lm-projection operators is LMMAX =          18
 
 POTCAR:    PAW_PBE Cl 17Jan2003                  
   VRHFIN =Cl: s2p5                                                             
   LEXCH  = PE                                                                  
   EATOM  =   409.7259 eV,   30.1140 Ry                                         
                                                                                
   TITEL  = PAW_PBE Cl 17Jan2003                                                
   LULTRA =        F    use ultrasoft PP ?                                      
   IUNSCR =        1    unscreen: 0-lin 1-nonlin 2-no                           
   RPACOR =    1.500    partial core radius                                     
   POMASS =   35.453; ZVAL   =    7.000    mass and valenz                      
   RCORE  =    1.900    outmost cutoff radius                                   
   RWIGS  =    2.100; RWIGS  =    1.111    wigner-seitz radius (au A)           
   ENMAX  =  280.000; ENMIN  =  196.854 eV                                      
   ICORE  =        2    local potential                                         
   LCOR   =        T    correct aug charges                                     
   LPAW   =        T    paw PP                                                  
   EAUG   =  356.192                                                            
   DEXC   =     .000                                                            
   RMAX   =    2.846    core radius for proj-oper                               
   RAUG   =    1.300    factor for augmentation sphere                          
   RDEP   =    2.020    radius for radial grids                                 
   QCUT   =   -4.392; QGAM   =    8.784    optimization parameters              
                                                                                
   Description                                                                  
     l     E      TYP  RCUT    TYP  RCUT                                        
     0   .000     23  1.900                                                     
     0   .000     23  1.900                                                     
     1   .000     23  1.900                                                     
     1   .000     23  1.900                                                     
     2   .000     23  1.900                                                     
  local pseudopotential read in
  partial core-charges read in
  atomic valenz-charges read in
  non local Contribution for L=           0  read in
    real space projection operators read in
  non local Contribution for L=           0  read in
    real space projection operators read in
  non local Contribution for L=           1  read in
    real space projection operators read in
  non local Contribution for L=           1  read in
    real space projection operators read in
    PAW grid and wavefunctions read in
 
   number of l-projection  operators is LMAX  =           4
   number of lm-projection operators is LMMAX =           8
 
  PAW_PBE Nb_sv 25May2007               :
 energy of atom  1       EATOM=-1555.1913
 kinetic energy error for atom=    0.0711 (will be added to EATOM!!)
  PAW_PBE Cl 17Jan2003                  :
 energy of atom  2       EATOM= -409.7259
 kinetic energy error for atom=    0.0170 (will be added to EATOM!!)
 
 
 POSCAR: O dimer in a box                        
  positions in direct lattice
  velocities in cartesian coordinates
 exchange correlation table for  LEXCH =        8
   RHO(1)=    0.500       N(1)  =     2000
   RHO(2)=  100.500       N(2)  =     4000
 


--------------------------------------------------------------------------------------------------------


 ion  position               nearest neighbor table
   1  0.000  0.000  0.008-   2 2.61
   2  0.000  0.000  0.226-   1 2.61
 
  LATTYP: Found a simple cubic cell.
 ALAT       =    12.0000000000
  
  Lattice vectors:
  
 A1 = (  12.0000000000,   0.0000000000,   0.0000000000)
 A2 = (   0.0000000000,  12.0000000000,   0.0000000000)
 A3 = (   0.0000000000,   0.0000000000,  12.0000000000)


Analysis of symmetry for initial positions (statically):
=====================================================================
 Subroutine PRICEL returns:
 Original cell was already a primitive cell.
 

 Routine SETGRP: Setting up the symmetry group for a 
 simple cubic supercell.


 Subroutine GETGRP returns: Found  8 space group operations
 (whereof  8 operations were pure point group operations)
 out of a pool of 48 trial point group operations.


The static configuration has the point symmetry C_4v.


Analysis of symmetry for dynamics (positions and initial velocities):
=====================================================================
 Subroutine PRICEL returns:
 Original cell was already a primitive cell.
 

 Routine SETGRP: Setting up the symmetry group for a 
 simple cubic supercell.


 Subroutine GETGRP returns: Found  8 space group operations
 (whereof  8 operations were pure point group operations)
 out of a pool of 48 trial point group operations.


The dynamic configuration has the point symmetry C_4v.


Analysis of constrained symmetry for selective dynamics:
=====================================================================
 Subroutine PRICEL returns:
 Original cell was already a primitive cell.
 

 Routine SETGRP: Setting up the symmetry group for a 
 simple cubic supercell.


 Subroutine GETGRP returns: Found  8 space group operations
 (whereof  8 operations were pure point group operations)
 out of a pool of 48 trial point group operations.


The constrained configuration has the point symmetry C_4v.


Analysis of structural, dynamic, and magnetic symmetry:
=====================================================================
 Subroutine PRICEL returns:
 Original cell was already a primitive cell.
 

 Routine SETGRP: Setting up the symmetry group for a 
 simple cubic supercell.


 Subroutine GETGRP returns: Found  8 space group operations
 (whereof  8 operations were pure point group operations)
 out of a pool of 48 trial point group operations.


The magnetic configuration has the point symmetry C_4v.


 Subroutine INISYM returns: Found  8 space group operations
 (whereof  8 operations are pure point group operations),
 and found     1 'primitive' translations

 
 
 KPOINTS: Gamma-point only                        

Automatic generation of k-mesh.
Space group operators:
 irot       det(A)        alpha          n_x          n_y          n_z        tau_x        tau_y        tau_z
    1     1.000000     0.000000     1.000000     0.000000     0.000000     0.000000     0.000000     0.000000
    2     1.000000    90.000000     0.000000     0.000000    -1.000000     0.000000     0.000000     0.000000
    3     1.000000   180.000000     0.000000     0.000000     1.000000     0.000000     0.000000     0.000000
    4     1.000000    90.000000     0.000000     0.000000     1.000000     0.000000     0.000000     0.000000
    5    -1.000000   180.000000     1.000000     0.000000     0.000000     0.000000     0.000000     0.000000
    6    -1.000000   180.000000     0.707107     0.707107     0.000000     0.000000     0.000000     0.000000
    7    -1.000000   180.000000     0.000000     1.000000     0.000000     0.000000     0.000000     0.000000
    8    -1.000000   180.000000     0.707107    -0.707107     0.000000     0.000000     0.000000     0.000000
 
 Subroutine IBZKPT returns following result:
 ===========================================
 
 Found      6 irreducible k-points:
 
 Following reciprocal coordinates:
            Coordinates               Weight
  0.125000  0.125000  0.125000      8.000000
  0.375000  0.125000  0.125000     16.000000
  0.375000  0.375000  0.125000      8.000000
  0.125000  0.125000  0.375000      8.000000
  0.375000  0.125000  0.375000     16.000000
  0.375000  0.375000  0.375000      8.000000
 
 Following cartesian coordinates:
            Coordinates               Weight
  0.010417  0.010417  0.010417      8.000000
  0.031250  0.010417  0.010417     16.000000
  0.031250  0.031250  0.010417      8.000000
  0.010417  0.010417  0.031250      8.000000
  0.031250  0.010417  0.031250     16.000000
  0.031250  0.031250  0.031250      8.000000
 


--------------------------------------------------------------------------------------------------------




 Dimension of arrays:
   k-points           NKPTS =      6   k-points in BZ     NKDIM =      6   number of bands    NBANDS=     16
   number of dos      NEDOS =    301   number of ions     NIONS =      2
   non local maximal  LDIM  =      6   non local SUM 2l+1 LMDIM =     18
   total plane-waves  NPLWV = 125000
   max r-space proj   IRMAX =      1   max aug-charges    IRDMAX=   3263
   dimension x,y,z NGX =    50 NGY =   50 NGZ =   50
   dimension x,y,z NGXF=   100 NGYF=  100 NGZF=  100
   support grid    NGXF=   100 NGYF=  100 NGZF=  100
   ions per type =               1   1
   NGX,Y,Z   is equivalent  to a cutoff of   6.93,  6.93,  6.93 a.u.
   NGXF,Y,Z  is equivalent  to a cutoff of  13.85, 13.85, 13.85 a.u.

 SYSTEM =  Te                                      
 POSCAR =  O dimer in a box                        

 Startparameter for this run:
   NWRITE =      2    write-flag & timer
   PREC   = normal    normal or accurate (medium, high low for compatibility)
   ISTART =      1    job   : 0-new  1-cont  2-samecut
   ICHARG =      0    charge: 1-file 2-atom 10-const
   ISPIN  =      2    spin polarized calculation?
   LNONCOLLINEAR =      F non collinear calculations
   LSORBIT =      F    spin-orbit coupling
   INIWAV =      1    electr: 0-lowe 1-rand  2-diag
   LASPH  =      F    aspherical Exc in radial PAW
   METAGGA=      F    non-selfconsistent MetaGGA calc.

 Electronic Relaxation 1
   ENCUT  =  293.2 eV  21.55 Ry    4.64 a.u.  16.76 16.76 16.76*2*pi/ulx,y,z
   ENINI  =  293.2     initial cutoff
   ENAUG  =  455.7 eV  augmentation charge cutoff
   NELM   =     60;   NELMIN=  2; NELMDL=  0     # of ELM steps 
   EDIFF  = 0.1E-03   stopping-criterion for ELM
   LREAL  =      F    real-space projection
   NLSPLINE    = F    spline interpolate recip. space projectors
   LCOMPAT=      F    compatible to vasp.4.4
   GGA_COMPAT  = T    GGA compatible to vasp.4.4-vasp.4.6
   LMAXPAW     = -100 max onsite density
   LMAXMIX     =    2 max onsite mixed and CHGCAR
   VOSKOWN=      0    Vosko Wilk Nusair interpolation
   ROPT   =    0.00000   0.00000
 Ionic relaxation
   EDIFFG = 0.1E-02   stopping-criterion for IOM
   NSW    =     10    number of steps for IOM
   NBLOCK =      1;   KBLOCK =     10    inner block; outer block 
   IBRION =      2    ionic relax: 0-MD 1-quasi-New 2-CG
   NFREE  =      1    steps in history (QN), initial steepest desc. (CG)
   ISIF   =      2    stress and relaxation
   IWAVPR =     11    prediction:  0-non 1-charg 2-wave 3-comb
   ISYM   =      2    0-nonsym 1-usesym 2-fastsym
   LCORR  =      T    Harris-Foulkes like correction to forces

   POTIM  = 0.5000    time-step for ionic-motion
   TEIN   =    0.0    initial temperature
   TEBEG  =    0.0;   TEEND  =   0.0 temperature during run
   SMASS  =  -3.00    Nose mass-parameter (am)
   estimated Nose-frequenzy (Omega)   =  0.10E-29 period in steps =****** mass=  -0.329E-26a.u.
   SCALEE = 1.0000    scale energy and forces
   NPACO  =    256;   APACO  = 16.0  distance and # of slots for P.C.
   PSTRESS=    0.0 pullay stress

  Mass of Ions in am
   POMASS =  92.91 35.45
  Ionic Valenz
   ZVAL   =  13.00  7.00
  Atomic Wigner-Seitz radii
   RWIGS  =  -1.00 -1.00
  virtual crystal weights 
   VCA    =   1.00  1.00
   NELECT =      20.0000    total number of electrons
   NUPDOWN=      -1.0000    fix difference up-down

 DOS related values:
   EMIN   =  10.00;   EMAX   =-10.00  energy-range for DOS
   EFERMI =   0.00
   ISMEAR =     0;   SIGMA  =   0.20  broadening in eV -4-tet -1-fermi 0-gaus

 Electronic relaxation 2 (details)
   IALGO  =     38    algorithm
   LDIAG  =      T    sub-space diagonalisation (order eigenvalues)
   LSUBROT=      F    optimize rotation matrix (better conditioning)
   TURBO    =      0    0=normal 1=particle mesh
   IRESTART =      0    0=no restart 2=restart with 2 vectors
   NREBOOT  =      0    no. of reboots
   NMIN     =      0    reboot dimension
   EREF     =   0.00    reference energy to select bands
   IMIX   =      4    mixing-type and parameters
     AMIX     =   0.40;   BMIX     =  1.00
     AMIX_MAG =   1.60;   BMIX_MAG =  1.00
     AMIN     =   0.10
     WC   =   100.;   INIMIX=   1;  MIXPRE=   1;  MAXMIX= -45

 Intra band minimization:
   WEIMIN = 0.0010     energy-eigenvalue tresh-hold
   EBREAK =  0.16E-05  absolut break condition
   DEPER  =   0.30     relativ break condition  

   TIME   =   0.40     timestep for ELM

  volume/ion in A,a.u.               =     864.00      5830.56
  Fermi-wavevector in a.u.,A,eV,Ry     =   0.370314  0.699792  1.865801  0.137133
  Thomas-Fermi vector in A             =   1.297595
 
 Write flags
   LWAVE        =      T    write WAVECAR
   LDOWNSAMPLE  =      F    k-point downsampling of WAVECAR
   LCHARG       =      T    write CHGCAR
   LVTOT        =      F    write LOCPOT, total local potential
   LVHAR        =      F    write LOCPOT, Hartree potential only
   LELF         =      F    write electronic localiz. function (ELF)
   LORBIT       =      0    0 simple, 1 ext, 2 COOP (PROOUT), +10 PAW based schemes


 Dipole corrections
   LMONO  =      F    monopole corrections only (constant potential shift)
   LDIPOL =      F    correct potential (dipole corrections)
   IDIPOL =      0    1-x, 2-y, 3-z, 4-all directions 
   EPSILON=  1.0000000 bulk dielectric constant

 Exchange correlation treatment:
   GGA     =    --    GGA type
   LEXCH   =     8    internal setting for exchange type
   VOSKOWN=      0    Vosko Wilk Nusair interpolation
   LHFCALC =     F    Hartree Fock is set to
   LHFONE  =     F    Hartree Fock one center treatment
   AEXX    =    0.0000 exact exchange contribution

 Linear response parameters
   LEPSILON=     F    determine dielectric tensor
   LRPA    =     F    only Hartree local field effects (RPA)
   LNABLA  =     F    use nabla operator in PAW spheres
   LVEL    =     F    velocity operator in full k-point grid
   LINTERFAST=   F  fast interpolation
   KINTER  =     0    interpolate to denser k-point grid
   CSHIFT  =0.1000    complex shift for real part using Kramers Kronig
   OMEGAMAX=  -1.0    maximum frequency
   DEG_THRESHOLD= 0.2000000E-02 threshold for treating states as degnerate
   RTIME   =   -0.100 relaxation time in fs
  (WPLASMAI=    0.000 imaginary part of plasma frequency in eV, 0.658/RTIME)
   DFIELD  = 0.0000000 0.0000000 0.0000000 field for delta impulse in time
 
 Orbital magnetization related:
   ORBITALMAG=     F  switch on orbital magnetization
   LCHIMAG   =     F  perturbation theory with respect to B field
   DQ        =  0.001000  dq finite difference perturbation B field
   LLRAUG    =     F  two centre corrections for induced B field



--------------------------------------------------------------------------------------------------------


 conjugate gradient relaxation of ions
   using selective dynamics as specified on POSCAR
 charge density and potential will be updated during run
 spin polarized calculation
 Variant of blocked Davidson
 Davidson routine will perform the subspace rotation
 perform sub-space diagonalisation
    after iterative eigenvector-optimisation
 modified Broyden-mixing scheme, WC =      100.0
 initial mixing is a Kerker type mixing with AMIX =  0.4000 and BMIX =      1.0000
 Hartree-type preconditioning will be used
 using additional bands            6
 reciprocal scheme for non local part
 use partial core corrections
 calculate Harris-corrections to forces 
   (improved forces if not selfconsistent)
 use gradient corrections 
 use of overlap-Matrix (Vanderbilt PP)
 Gauss-broadening in eV      SIGMA  =   0.20


--------------------------------------------------------------------------------------------------------


  energy-cutoff  :      293.24
  volume of cell :     1728.00
      direct lattice vectors                 reciprocal lattice vectors
    12.000000000  0.000000000  0.000000000     0.083333333  0.000000000  0.000000000
     0.000000000 12.000000000  0.000000000     0.000000000  0.083333333  0.000000000
     0.000000000  0.000000000 12.000000000     0.000000000  0.000000000  0.083333333

  length of vectors
    12.000000000 12.000000000 12.000000000     0.083333333  0.083333333  0.083333333


 
 old parameters found on file WAVECAR:
  energy-cutoff  :      262.47
  volume of cell :     1000.00
      direct lattice vectors                 reciprocal lattice vectors
    10.000000000  0.000000000  0.000000000     0.100000000  0.000000000  0.000000000
     0.000000000 10.000000000  0.000000000     0.000000000  0.100000000  0.000000000
     0.000000000  0.000000000 10.000000000     0.000000000  0.000000000  0.100000000

  length of vectors

 
 k-points in units of 2pi/SCALE and weight: Gamma-point only                        
   0.01041667  0.01041667  0.01041667       0.125
   0.03125000  0.01041667  0.01041667       0.250
   0.03125000  0.03125000  0.01041667       0.125
   0.01041667  0.01041667  0.03125000       0.125
   0.03125000  0.01041667  0.03125000       0.250
   0.03125000  0.03125000  0.03125000       0.125
 
 k-points in reciprocal lattice and weights: Gamma-point only                        
   0.12500000  0.12500000  0.12500000       0.125
   0.37500000  0.12500000  0.12500000       0.250
   0.37500000  0.37500000  0.12500000       0.125
   0.12500000  0.12500000  0.37500000       0.125
   0.37500000  0.12500000  0.37500000       0.250
   0.37500000  0.37500000  0.37500000       0.125
 
 position of ions in fractional coordinates (direct lattice) 
   0.00000000  0.00000000  0.00824685
   0.00000000  0.00000000  0.22569059
 
 position of ions in cartesian coordinates  (Angst):
   0.00000000  0.00000000  0.09896216
   0.00000000  0.00000000  2.70828705
 


--------------------------------------------------------------------------------------------------------


 k-point  1 :   0.1250 0.1250 0.1250  plane waves:   19717
 k-point  2 :   0.3750 0.1250 0.1250  plane waves:   19713
 k-point  3 :   0.3750 0.3750 0.1250  plane waves:   19693
 k-point  4 :   0.1250 0.1250 0.3750  plane waves:   19713
 k-point  5 :   0.3750 0.1250 0.3750  plane waves:   19693
 k-point  6 :   0.3750 0.3750 0.3750  plane waves:   19730

 maximum and minimum number of plane-waves per node :     19730    19693

 maximum number of plane-waves:     19730
 maximum index in each direction: 
   IXMAX=   16   IYMAX=   16   IZMAX=   16
   IXMIN=  -17   IYMIN=  -17   IZMIN=  -17


 serial   3D FFT for wavefunctions
 parallel 3D FFT for charge:
    minimum data exchange during FFTs selected (reduces bandwidth)


 total amount of memory used by VASP MPI-rank0    87240. kBytes
=======================================================================

   base      :      30000. kBytes
   nonl-proj :      34749. kBytes
   fftplans  :       2864. kBytes
   grid      :      15769. kBytes
   one-center:         62. kBytes
   wavefun   :       3796. kBytes
 
     INWAV:  cpu time    0.1064: real time    0.1133
 Broyden mixing: mesh for mixing (old mesh)
   NGX = 33   NGY = 33   NGZ = 33
  (NGX  =100   NGY  =100   NGZ  =100)
  gives a total of  35937 points

 charge density for first step will be calculated from the start-wavefunctions


--------------------------------------------------------------------------------------------------------


 Maximum index for augmentation-charges          446 (set IRDMAX)


--------------------------------------------------------------------------------------------------------


 initial charge from wavefunction
 First call to EWALD:  gamma=   0.148
 Maximum number of real-space cells 3x 3x 3
 Maximum number of reciprocal cells 3x 3x 3

    FEWALD:  cpu time    0.0011: real time    0.0014


--------------------------------------- Iteration      1(   1)  ---------------------------------------


    POTLOK:  cpu time    0.0632: real time    0.0661
    SETDIJ:  cpu time    0.0035: real time    0.0035
     EDDAV:  cpu time    0.3460: real time    0.3694
       DOS:  cpu time    0.0005: real time    0.0007
    CHARGE:  cpu time    0.0425: real time    0.0435
    MIXING:  cpu time    0.0016: real time    0.0017
    --------------------------------------------
      LOOP:  cpu time    0.4573: real time    0.4848

 eigenvalue-minimisations  :   512
 total energy-change (2. order) :-0.3633023E+03  (-0.5109939E+03)
 number of electron      19.9999963 magnetization      -0.0002920
 augmentation part        0.9902666 magnetization       0.0006022

 Broyden mixing:
  rms(total) = 0.34268E+02    rms(broyden)= 0.34264E+02
  rms(prec ) = 0.35004E+02
  weight for this iteration     100.00

 Free energy of the ion-electron system (eV)
  ---------------------------------------------------
  alpha Z        PSCENC =         1.67626390
  Ewald energy   TEWEN  =      -167.16912795
  -Hartree energ DENC   =      -539.58318091
  -exchange      EXHF   =         0.00000000
  -V(xc)+E(xc)   XCENC  =        36.17846505
  PAW double counting   =       440.39131878     -441.99051663
  entropy T*S    EENTRO =        -0.03066875
  eigenvalues    EBANDS =     -1657.60388364
  atomic energy  EATOM  =      1964.82903143
  Solvation  Ediel_sol  =         0.00000000
  ---------------------------------------------------
  free energy    TOTEN  =      -363.30229872 eV

  energy without entropy =     -363.27162997  energy(sigma->0) =     -363.28696434


--------------------------------------------------------------------------------------------------------




--------------------------------------- Iteration      1(   2)  ---------------------------------------


    POTLOK:  cpu time    0.0603: real time    0.0606
    SETDIJ:  cpu time    0.0036: real time    0.0036
     EDDAV:  cpu time    0.4213: real time    0.4246
       DOS:  cpu time    0.0007: real time    0.0007
    CHARGE:  cpu time    0.0397: real time    0.0410
    MIXING:  cpu time    0.0017: real time    0.0058
    --------------------------------------------
      LOOP:  cpu time    0.5273: real time    0.5363

 eigenvalue-minimisations  :   736
 total energy-change (2. order) : 0.1158670E+03  (-0.2090165E+03)
 number of electron      19.9999933 magnetization      -0.0003049
 augmentation part        2.8840312 magnetization       0.0003130

 Broyden mixing:
  rms(total) = 0.30203E+02    rms(broyden)= 0.30201E+02
  rms(prec ) = 0.30939E+02
  weight for this iteration     100.00

 eigenvalues of (default mixing * dielectric matrix)
  average eigenvalue GAMMA=   0.7076
  0.7076

 Free energy of the ion-electron system (eV)
  ---------------------------------------------------
  alpha Z        PSCENC =         1.67626390
  Ewald energy   TEWEN  =      -167.16912795
  -Hartree energ DENC   =      -759.39064959
  -exchange      EXHF   =         0.00000000
  -V(xc)+E(xc)   XCENC  =        51.04355610
  PAW double counting   =     16605.59106662   -16593.57133361
  entropy T*S    EENTRO =        -0.06242465
  eigenvalues    EBANDS =     -1350.38168713
  atomic energy  EATOM  =      1964.82903143
  Solvation  Ediel_sol  =         0.00000000
  ---------------------------------------------------
  free energy    TOTEN  =      -247.43530487 eV

  energy without entropy =     -247.37288023  energy(sigma->0) =     -247.40409255


--------------------------------------------------------------------------------------------------------




--------------------------------------- Iteration      1(   3)  ---------------------------------------


    POTLOK:  cpu time    0.0586: real time    0.0588
    SETDIJ:  cpu time    0.0032: real time    0.0032
     EDDAV:  cpu time    0.3107: real time    0.3133
       DOS:  cpu time    0.0003: real time    0.0003
    CHARGE:  cpu time    0.0398: real time    0.0405
    MIXING:  cpu time    0.0015: real time    0.0025
    --------------------------------------------
      LOOP:  cpu time    0.4141: real time    0.4186

 eigenvalue-minimisations  :   512
 total energy-change (2. order) : 0.1452960E+03  (-0.8674809E+02)
 number of electron      20.0000008 magnetization      -0.0005066
 augmentation part        0.5838152 magnetization       0.0005902

 Broyden mixing:
  rms(total) = 0.20317E+02    rms(broyden)= 0.20316E+02
  rms(prec ) = 0.20531E+02
  weight for this iteration     100.00

 eigenvalues of (default mixing * dielectric matrix)
  average eigenvalue GAMMA=   0.6530
  0.6530  0.6530

 Free energy of the ion-electron system (eV)
  ---------------------------------------------------
  alpha Z        PSCENC =         1.67626390
  Ewald energy   TEWEN  =      -167.16912795
  -Hartree energ DENC   =      -985.76793674
  -exchange      EXHF   =         0.00000000
  -V(xc)+E(xc)   XCENC  =        60.53938330
  PAW double counting   =     33954.79256152   -33928.51299162
  entropy T*S    EENTRO =        -0.33166630
  eigenvalues    EBANDS =     -1002.19486458
  atomic energy  EATOM  =      1964.82903143
  Solvation  Ediel_sol  =         0.00000000
  ---------------------------------------------------
  free energy    TOTEN  =      -102.13934703 eV

  energy without entropy =     -101.80768073  energy(sigma->0) =     -101.97351388


--------------------------------------------------------------------------------------------------------




--------------------------------------- Iteration      1(   4)  ---------------------------------------


    POTLOK:  cpu time    0.0585: real time    0.0587
    SETDIJ:  cpu time    0.0031: real time    0.0032
     EDDAV:  cpu time    0.2988: real time    0.3012
       DOS:  cpu time    0.0003: real time    0.0003
    CHARGE:  cpu time    0.0395: real time    0.0405
    MIXING:  cpu time    0.0014: real time    0.0018
    --------------------------------------------
      LOOP:  cpu time    0.4017: real time    0.4057

 eigenvalue-minimisations  :   512
 total energy-change (2. order) : 0.2583726E+02  (-0.3393529E+01)
 number of electron      19.9999989 magnetization      -0.0021808
 augmentation part        0.8396452 magnetization       0.0010265

 Broyden mixing:
  rms(total) = 0.14065E+02    rms(broyden)= 0.14064E+02
  rms(prec ) = 0.14281E+02
  weight for this iteration     100.00

 eigenvalues of (default mixing * dielectric matrix)
  average eigenvalue GAMMA=   0.8017
  0.8879  0.8879  0.6291

 Free energy of the ion-electron system (eV)
  ---------------------------------------------------
  alpha Z        PSCENC =         1.67626390
  Ewald energy   TEWEN  =      -167.16912795
  -Hartree energ DENC   =     -1018.71179623
  -exchange      EXHF   =         0.00000000
  -V(xc)+E(xc)   XCENC  =        62.24910886
  PAW double counting   =     18884.10466610   -18862.44318733
  entropy T*S    EENTRO =        -0.29713295
  eigenvalues    EBANDS =      -940.53991398
  atomic energy  EATOM  =      1964.82903143
  Solvation  Ediel_sol  =         0.00000000
  ---------------------------------------------------
  free energy    TOTEN  =       -76.30208815 eV

  energy without entropy =      -76.00495520  energy(sigma->0) =      -76.15352168


--------------------------------------------------------------------------------------------------------




--------------------------------------- Iteration      1(   5)  ---------------------------------------


    POTLOK:  cpu time    0.0579: real time    0.0581
    SETDIJ:  cpu time    0.0032: real time    0.0032
     EDDAV:  cpu time    0.4299: real time    0.4328
       DOS:  cpu time    0.0003: real time    0.0003
    CHARGE:  cpu time    0.0389: real time    0.0394
    MIXING:  cpu time    0.0016: real time    0.0016
    --------------------------------------------
      LOOP:  cpu time    0.5318: real time    0.5354

 eigenvalue-minimisations  :   768
 total energy-change (2. order) : 0.2137897E+02  (-0.6000421E+01)
 number of electron      19.9999969 magnetization      -0.0021667
 augmentation part        1.6121881 magnetization       0.0012374

 Broyden mixing:
  rms(total) = 0.72284E+01    rms(broyden)= 0.72279E+01
  rms(prec ) = 0.80559E+01
  weight for this iteration     100.00

 eigenvalues of (default mixing * dielectric matrix)
  average eigenvalue GAMMA=   0.7515
  1.0137  1.0137  0.5926  0.3859

 Free energy of the ion-electron system (eV)
  ---------------------------------------------------
  alpha Z        PSCENC =         1.67626390
  Ewald energy   TEWEN  =      -167.16912795
  -Hartree energ DENC   =     -1099.16169145
  -exchange      EXHF   =         0.00000000
  -V(xc)+E(xc)   XCENC  =        65.75317336
  PAW double counting   =      6857.82225939    -6839.96700470
  entropy T*S    EENTRO =        -0.15744482
  eigenvalues    EBANDS =      -838.54857529
  atomic energy  EATOM  =      1964.82903143
  Solvation  Ediel_sol  =         0.00000000
  ---------------------------------------------------
  free energy    TOTEN  =       -54.92311613 eV

  energy without entropy =      -54.76567131  energy(sigma->0) =      -54.84439372


--------------------------------------------------------------------------------------------------------




--------------------------------------- Iteration      1(   6)  ---------------------------------------


    POTLOK:  cpu time    0.0580: real time    0.0582
    SETDIJ:  cpu time    0.0031: real time    0.0031
     EDDAV:  cpu time    0.3083: real time    0.3100
       DOS:  cpu time    0.0003: real time    0.0003
    CHARGE:  cpu time    0.0376: real time    0.0377
    MIXING:  cpu time    0.0016: real time    0.0016
    --------------------------------------------
      LOOP:  cpu time    0.4089: real time    0.4109

 eigenvalue-minimisations  :   512
 total energy-change (2. order) :-0.8166360E+00  (-0.3944759E-01)
 number of electron      19.9999966 magnetization      -0.0083692
 augmentation part        1.6856688 magnetization      -0.0055917

 Broyden mixing:
  rms(total) = 0.73099E+01    rms(broyden)= 0.73098E+01
  rms(prec ) = 0.81994E+01
  weight for this iteration     100.00

 eigenvalues of (default mixing * dielectric matrix)
  average eigenvalue GAMMA=   0.7876
  1.3325  1.3325  0.6704  0.4225  0.1803

 Free energy of the ion-electron system (eV)
  ---------------------------------------------------
  alpha Z        PSCENC =         1.67626390
  Ewald energy   TEWEN  =      -167.16912795
  -Hartree energ DENC   =     -1097.83072048
  -exchange      EXHF   =         0.00000000
  -V(xc)+E(xc)   XCENC  =        65.70161312
  PAW double counting   =      6918.96682565    -6901.11855480
  entropy T*S    EENTRO =        -0.10759016
  eigenvalues    EBANDS =      -840.68749280
  atomic energy  EATOM  =      1964.82903143
  Solvation  Ediel_sol  =         0.00000000
  ---------------------------------------------------
  free energy    TOTEN  =       -55.73975209 eV

  energy without entropy =      -55.63216193  energy(sigma->0) =      -55.68595701


--------------------------------------------------------------------------------------------------------




--------------------------------------- Iteration      1(   7)  ---------------------------------------


    POTLOK:  cpu time    0.0585: real time    0.0587
    SETDIJ:  cpu time    0.0029: real time    0.0030
     EDDAV:  cpu time    0.3399: real time    0.3420
       DOS:  cpu time    0.0002: real time    0.0002
    CHARGE:  cpu time    0.0444: real time    0.0446
    MIXING:  cpu time    0.0020: real time    0.0020
    --------------------------------------------
      LOOP:  cpu time    0.4479: real time    0.4504

 eigenvalue-minimisations  :   576
 total energy-change (2. order) : 0.4916276E+01  (-0.5143126E+01)
 number of electron      19.9999955 magnetization      -0.0097197
 augmentation part        2.0893324 magnetization      -0.0098232

 Broyden mixing:
  rms(total) = 0.42091E+01    rms(broyden)= 0.42089E+01
  rms(prec ) = 0.61548E+01
  weight for this iteration     100.00

 eigenvalues of (default mixing * dielectric matrix)
  average eigenvalue GAMMA=   0.9233
  1.5635  1.5635  0.8013  0.8013  0.6651  0.1454

 Free energy of the ion-electron system (eV)
  ---------------------------------------------------
  alpha Z        PSCENC =         1.67626390
  Ewald energy   TEWEN  =      -167.16912795
  -Hartree energ DENC   =     -1240.79571924
  -exchange      EXHF   =         0.00000000
  -V(xc)+E(xc)   XCENC  =        71.78706298
  PAW double counting   =       893.04251014     -878.11527087
  entropy T*S    EENTRO =        -0.00000000
  eigenvalues    EBANDS =      -696.07822683
  atomic energy  EATOM  =      1964.82903143
  Solvation  Ediel_sol  =         0.00000000
  ---------------------------------------------------
  free energy    TOTEN  =       -50.82347643 eV

  energy without entropy =      -50.82347643  energy(sigma->0) =      -50.82347643


--------------------------------------------------------------------------------------------------------




--------------------------------------- Iteration      1(   8)  ---------------------------------------


    POTLOK:  cpu time    0.0646: real time    0.0649
    SETDIJ:  cpu time    0.0032: real time    0.0032
     EDDAV:  cpu time    0.3574: real time    0.3592
       DOS:  cpu time    0.0003: real time    0.0003
    CHARGE:  cpu time    0.0384: real time    0.0386
    MIXING:  cpu time    0.0019: real time    0.0019
    --------------------------------------------
      LOOP:  cpu time    0.4658: real time    0.4680

 eigenvalue-minimisations  :   576
 total energy-change (2. order) : 0.2100397E+02  (-0.2169534E+01)
 number of electron      19.9999963 magnetization      -0.0083193
 augmentation part        1.7709895 magnetization      -0.0074098

 Broyden mixing:
  rms(total) = 0.60948E+01    rms(broyden)= 0.60948E+01
  rms(prec ) = 0.72204E+01
  weight for this iteration     100.00

 eigenvalues of (default mixing * dielectric matrix)
  average eigenvalue GAMMA=   0.9396
  1.6670  1.6670  0.9416  0.9416  0.6061  0.6061  0.1480

 Free energy of the ion-electron system (eV)
  ---------------------------------------------------
  alpha Z        PSCENC =         1.67626390
  Ewald energy   TEWEN  =      -167.16912795
  -Hartree energ DENC   =     -1363.64823708
  -exchange      EXHF   =         0.00000000
  -V(xc)+E(xc)   XCENC  =        76.55795217
  PAW double counting   =      1043.04610019    -1029.12734371
  entropy T*S    EENTRO =        -0.00098281
  eigenvalues    EBANDS =      -555.98315794
  atomic energy  EATOM  =      1964.82903143
  Solvation  Ediel_sol  =         0.00000000
  ---------------------------------------------------
  free energy    TOTEN  =       -29.81950179 eV

  energy without entropy =      -29.81851899  energy(sigma->0) =      -29.81901039


--------------------------------------------------------------------------------------------------------




--------------------------------------- Iteration      1(   9)  ---------------------------------------


    POTLOK:  cpu time    0.0579: real time    0.0581
    SETDIJ:  cpu time    0.0030: real time    0.0031
     EDDAV:  cpu time    0.2558: real time    0.2567
       DOS:  cpu time    0.0018: real time    0.0018
    CHARGE:  cpu time    0.0391: real time    0.0393
    MIXING:  cpu time    0.0018: real time    0.0018
    --------------------------------------------
      LOOP:  cpu time    0.3596: real time    0.3608

 eigenvalue-minimisations  :   384
 total energy-change (2. order) : 0.1322829E+02  (-0.2724718E+01)
 number of electron      19.9999974 magnetization      -0.0068037
 augmentation part        1.2173458 magnetization      -0.0068186

 Broyden mixing:
  rms(total) = 0.33483E+01    rms(broyden)= 0.33482E+01
  rms(prec ) = 0.40575E+01
  weight for this iteration     100.00

 eigenvalues of (default mixing * dielectric matrix)
  average eigenvalue GAMMA=   0.9444
  1.6218  1.6218  0.9949  0.9949  0.7886  0.7886  0.5971  0.1477

 Free energy of the ion-electron system (eV)
  ---------------------------------------------------
  alpha Z        PSCENC =         1.67626390
  Ewald energy   TEWEN  =      -167.16912795
  -Hartree energ DENC   =     -1358.39855305
  -exchange      EXHF   =         0.00000000
  -V(xc)+E(xc)   XCENC  =        75.24203611
  PAW double counting   =       897.93676821     -883.41155916
  entropy T*S    EENTRO =        -0.00706522
  eigenvalues    EBANDS =      -547.28900603
  atomic energy  EATOM  =      1964.82903143
  Solvation  Ediel_sol  =         0.00000000
  ---------------------------------------------------
  free energy    TOTEN  =       -16.59121177 eV

  energy without entropy =      -16.58414655  energy(sigma->0) =      -16.58767916


--------------------------------------------------------------------------------------------------------




--------------------------------------- Iteration      1(  10)  ---------------------------------------


    POTLOK:  cpu time    0.0580: real time    0.0582
    SETDIJ:  cpu time    0.0029: real time    0.0030
     EDDAV:  cpu time    0.3387: real time    0.3398
       DOS:  cpu time    0.0003: real time    0.0003
    CHARGE:  cpu time    0.0476: real time    0.0483
    MIXING:  cpu time    0.0027: real time    0.0027
    --------------------------------------------
      LOOP:  cpu time    0.4504: real time    0.4524

 eigenvalue-minimisations  :   576
 total energy-change (2. order) : 0.5890347E+01  (-0.1749889E+01)
 number of electron      19.9999989 magnetization       0.0072224
 augmentation part        0.7524747 magnetization       0.0005852

 Broyden mixing:
  rms(total) = 0.31315E+01    rms(broyden)= 0.31312E+01
  rms(prec ) = 0.33185E+01
  weight for this iteration     100.00

 eigenvalues of (default mixing * dielectric matrix)
  average eigenvalue GAMMA=   0.9355
  1.6647  1.6647  1.0821  1.0821  0.8008  0.8008  0.5884  0.5884  0.1477

 Free energy of the ion-electron system (eV)
  ---------------------------------------------------
  alpha Z        PSCENC =         1.67626390
  Ewald energy   TEWEN  =      -167.16912795
  -Hartree energ DENC   =     -1390.41686786
  -exchange      EXHF   =         0.00000000
  -V(xc)+E(xc)   XCENC  =        75.53339587
  PAW double counting   =       852.82519416     -837.21797707
  entropy T*S    EENTRO =        -0.21270701
  eigenvalues    EBANDS =      -510.54807049
  atomic energy  EATOM  =      1964.82903143
  Solvation  Ediel_sol  =         0.00000000
  ---------------------------------------------------
  free energy    TOTEN  =       -10.70086503 eV

  energy without entropy =      -10.48815802  energy(sigma->0) =      -10.59451153


--------------------------------------------------------------------------------------------------------




--------------------------------------- Iteration      1(  11)  ---------------------------------------


    POTLOK:  cpu time    0.0582: real time    0.0584
    SETDIJ:  cpu time    0.0031: real time    0.0031
     EDDAV:  cpu time    0.2437: real time    0.2446
       DOS:  cpu time    0.0024: real time    0.0024
    CHARGE:  cpu time    0.0386: real time    0.0393
    MIXING:  cpu time    0.0024: real time    0.0024
    --------------------------------------------
      LOOP:  cpu time    0.3485: real time    0.3502

 eigenvalue-minimisations  :   384
 total energy-change (2. order) :-0.2209527E-01  (-0.4696109E+01)
 number of electron      20.0000004 magnetization       0.0393359
 augmentation part        0.6139552 magnetization      -0.0335037

 Broyden mixing:
  rms(total) = 0.10856E+01    rms(broyden)= 0.10813E+01
  rms(prec ) = 0.13965E+01
  weight for this iteration     100.00

 eigenvalues of (default mixing * dielectric matrix)
  average eigenvalue GAMMA=   0.9739
  1.5183  1.5183  1.5192  1.5192  0.8206  0.8206  0.6211  0.6211  0.6332  0.1477

 Free energy of the ion-electron system (eV)
  ---------------------------------------------------
  alpha Z        PSCENC =         1.67626390
  Ewald energy   TEWEN  =      -167.16912795
  -Hartree energ DENC   =     -1378.04129174
  -exchange      EXHF   =         0.00000000
  -V(xc)+E(xc)   XCENC  =        73.23209441
  PAW double counting   =      1521.06315220    -1502.89933789
  entropy T*S    EENTRO =        -0.29760713
  eigenvalues    EBANDS =      -523.11613753
  atomic energy  EATOM  =      1964.82903143
  Solvation  Ediel_sol  =         0.00000000
  ---------------------------------------------------
  free energy    TOTEN  =       -10.72296030 eV

  energy without entropy =      -10.42535318  energy(sigma->0) =      -10.57415674


--------------------------------------------------------------------------------------------------------




--------------------------------------- Iteration      1(  12)  ---------------------------------------


    POTLOK:  cpu time    0.0585: real time    0.0595
    SETDIJ:  cpu time    0.0030: real time    0.0030
     EDDAV:  cpu time    0.3444: real time    0.3456
       DOS:  cpu time    0.0024: real time    0.0024
    CHARGE:  cpu time    0.0426: real time    0.0428
    MIXING:  cpu time    0.0023: real time    0.0025
    --------------------------------------------
      LOOP:  cpu time    0.4533: real time    0.4558

 eigenvalue-minimisations  :   576
 total energy-change (2. order) : 0.1101718E+01  (-0.1938915E+00)
 number of electron      20.0000003 magnetization       0.2761275
 augmentation part        0.5571684 magnetization      -0.1101930

 Broyden mixing:
  rms(total) = 0.13303E+01    rms(broyden)= 0.13301E+01
  rms(prec ) = 0.15600E+01
  weight for this iteration     100.00

 eigenvalues of (default mixing * dielectric matrix)
  average eigenvalue GAMMA=   1.0180
  1.8584  1.8584  1.4876  1.4876  0.8850  0.8850  0.7004  0.7004  0.5935  0.5935
  0.1477

 Free energy of the ion-electron system (eV)
  ---------------------------------------------------
  alpha Z        PSCENC =         1.67626390
  Ewald energy   TEWEN  =      -167.16912795
  -Hartree energ DENC   =     -1415.15291669
  -exchange      EXHF   =         0.00000000
  -V(xc)+E(xc)   XCENC  =        74.00197710
  PAW double counting   =      1236.24245225    -1219.08219402
  entropy T*S    EENTRO =        -0.29129352
  eigenvalues    EBANDS =      -484.67543503
  atomic energy  EATOM  =      1964.82903143
  Solvation  Ediel_sol  =         0.00000000
  ---------------------------------------------------
  free energy    TOTEN  =        -9.62124252 eV

  energy without entropy =       -9.32994900  energy(sigma->0) =       -9.47559576


--------------------------------------------------------------------------------------------------------




--------------------------------------- Iteration      1(  13)  ---------------------------------------


    POTLOK:  cpu time    0.0583: real time    0.0585
    SETDIJ:  cpu time    0.0031: real time    0.0031
     EDDAV:  cpu time    0.4045: real time    0.4060
       DOS:  cpu time    0.0014: real time    0.0014
    CHARGE:  cpu time    0.0368: real time    0.0369
    MIXING:  cpu time    0.0024: real time    0.0024
    --------------------------------------------
      LOOP:  cpu time    0.5066: real time    0.5084

 eigenvalue-minimisations  :   672
 total energy-change (2. order) : 0.5803606E+00  (-0.1045172E+01)
 number of electron      20.0000019 magnetization       0.2933168
 augmentation part       -0.0885069 magnetization      -1.3121857

 Broyden mixing:
  rms(total) = 0.12131E+01    rms(broyden)= 0.12120E+01
  rms(prec ) = 0.14987E+01
  weight for this iteration     100.00

 eigenvalues of (default mixing * dielectric matrix)
  average eigenvalue GAMMA=   0.9349
  1.8548  1.8548  1.4896  1.4896  0.8837  0.8837  0.6980  0.6980  0.5911  0.5911
  0.1477  0.0363

 Free energy of the ion-electron system (eV)
  ---------------------------------------------------
  alpha Z        PSCENC =         1.67626390
  Ewald energy   TEWEN  =      -167.16912795
  -Hartree energ DENC   =     -1466.15060589
  -exchange      EXHF   =         0.00000000
  -V(xc)+E(xc)   XCENC  =        75.08558747
  PAW double counting   =      1433.02499029    -1416.76279862
  entropy T*S    EENTRO =        -0.06807695
  eigenvalues    EBANDS =      -433.50614555
  atomic energy  EATOM  =      1964.82903143
  Solvation  Ediel_sol  =         0.00000000
  ---------------------------------------------------
  free energy    TOTEN  =        -9.04088187 eV

  energy without entropy =       -8.97280492  energy(sigma->0) =       -9.00684340


--------------------------------------------------------------------------------------------------------




--------------------------------------- Iteration      1(  14)  ---------------------------------------


    POTLOK:  cpu time    0.0579: real time    0.0581
    SETDIJ:  cpu time    0.0031: real time    0.0031
     EDDAV:  cpu time    0.4097: real time    0.4115
       DOS:  cpu time    0.0003: real time    0.0003
    CHARGE:  cpu time    0.0370: real time    0.0371
    MIXING:  cpu time    0.0025: real time    0.0025
    --------------------------------------------
      LOOP:  cpu time    0.5105: real time    0.5126

 eigenvalue-minimisations  :   688
 total energy-change (2. order) : 0.1449423E+00  (-0.1566615E-01)
 number of electron      20.0000018 magnetization       0.2951377
 augmentation part       -0.0612518 magnetization      -1.3685489

 Broyden mixing:
  rms(total) = 0.11908E+01    rms(broyden)= 0.11908E+01
  rms(prec ) = 0.14602E+01
  weight for this iteration     100.00

 eigenvalues of (default mixing * dielectric matrix)
  average eigenvalue GAMMA=   0.9554
  1.9768  1.9768  1.4743  1.4743  0.6301  0.8894  0.8894  0.7133  0.7133  0.6038
  0.6038  0.1477  0.3268

 Free energy of the ion-electron system (eV)
  ---------------------------------------------------
  alpha Z        PSCENC =         1.67626390
  Ewald energy   TEWEN  =      -167.16912795
  -Hartree energ DENC   =     -1465.24311065
  -exchange      EXHF   =         0.00000000
  -V(xc)+E(xc)   XCENC  =        75.01631509
  PAW double counting   =      1426.56759494    -1410.21572815
  entropy T*S    EENTRO =        -0.05221499
  eigenvalues    EBANDS =      -434.30496319
  atomic energy  EATOM  =      1964.82903143
  Solvation  Ediel_sol  =         0.00000000
  ---------------------------------------------------
  free energy    TOTEN  =        -8.89593956 eV

  energy without entropy =       -8.84372458  energy(sigma->0) =       -8.86983207


--------------------------------------------------------------------------------------------------------




--------------------------------------- Iteration      1(  15)  ---------------------------------------


    POTLOK:  cpu time    0.0685: real time    0.0687
    SETDIJ:  cpu time    0.0031: real time    0.0031
     EDDAV:  cpu time    0.3555: real time    0.3568
       DOS:  cpu time    0.0003: real time    0.0003
    CHARGE:  cpu time    0.0381: real time    0.0382
    MIXING:  cpu time    0.0027: real time    0.0028
    --------------------------------------------
      LOOP:  cpu time    0.4682: real time    0.4699

 eigenvalue-minimisations  :   608
 total energy-change (2. order) : 0.1149082E-01  (-0.3431870E-03)
 number of electron      20.0000018 magnetization       0.3928918
 augmentation part       -0.0583968 magnetization      -1.2703081

 Broyden mixing:
  rms(total) = 0.11889E+01    rms(broyden)= 0.11889E+01
  rms(prec ) = 0.14574E+01
  weight for this iteration     100.00

 eigenvalues of (default mixing * dielectric matrix)
  average eigenvalue GAMMA=   0.9198
  2.0530  2.0530  1.4581  1.4581  0.9212  0.9212  0.7155  0.7155  0.1477  0.5716
  0.5716  0.5088  0.3907  0.3907

 Free energy of the ion-electron system (eV)
  ---------------------------------------------------
  alpha Z        PSCENC =         1.67626390
  Ewald energy   TEWEN  =      -167.16912795
  -Hartree energ DENC   =     -1465.25678798
  -exchange      EXHF   =         0.00000000
  -V(xc)+E(xc)   XCENC  =        75.02006500
  PAW double counting   =      1426.21801994    -1409.86437215
  entropy T*S    EENTRO =        -0.05206290
  eigenvalues    EBANDS =      -434.28547804
  atomic energy  EATOM  =      1964.82903143
  Solvation  Ediel_sol  =         0.00000000
  ---------------------------------------------------
  free energy    TOTEN  =        -8.88444875 eV

  energy without entropy =       -8.83238584  energy(sigma->0) =       -8.85841729


--------------------------------------------------------------------------------------------------------




--------------------------------------- Iteration      1(  16)  ---------------------------------------


    POTLOK:  cpu time    0.0639: real time    0.0641
    SETDIJ:  cpu time    0.0033: real time    0.0033
     EDDAV:  cpu time    0.2840: real time    0.2850
       DOS:  cpu time    0.0021: real time    0.0021
    CHARGE:  cpu time    0.0387: real time    0.0388
    MIXING:  cpu time    0.0030: real time    0.0030
    --------------------------------------------
      LOOP:  cpu time    0.3949: real time    0.3962

 eigenvalue-minimisations  :   480
 total energy-change (2. order) : 0.1204303E+01  (-0.3491847E+00)
 number of electron      20.0000014 magnetization       0.6342750
 augmentation part        0.0328170 magnetization      -1.3242096

 Broyden mixing:
  rms(total) = 0.10677E+01    rms(broyden)= 0.10676E+01
  rms(prec ) = 0.12994E+01
  weight for this iteration     100.00

 eigenvalues of (default mixing * dielectric matrix)
  average eigenvalue GAMMA=   0.9080
  2.0711  2.0711  1.4494  1.4494  0.9364  0.9364  0.6182  0.6182  0.7154  0.7154
  0.5875  0.5875  0.1477  0.3579  0.3579

 Free energy of the ion-electron system (eV)
  ---------------------------------------------------
  alpha Z        PSCENC =         1.67626390
  Ewald energy   TEWEN  =      -167.16912795
  -Hartree energ DENC   =     -1462.69043730
  -exchange      EXHF   =         0.00000000
  -V(xc)+E(xc)   XCENC  =        75.15981090
  PAW double counting   =      1529.59857174    -1513.49401197
  entropy T*S    EENTRO =        -0.00098883
  eigenvalues    EBANDS =      -435.58925753
  atomic energy  EATOM  =      1964.82903143
  Solvation  Ediel_sol  =         0.00000000
  ---------------------------------------------------
  free energy    TOTEN  =        -7.68014561 eV

  energy without entropy =       -7.67915678  energy(sigma->0) =       -7.67965119


--------------------------------------------------------------------------------------------------------




--------------------------------------- Iteration      1(  17)  ---------------------------------------


    POTLOK:  cpu time    0.0577: real time    0.0581
    SETDIJ:  cpu time    0.0031: real time    0.0031
     EDDAV:  cpu time    0.2951: real time    0.2962
       DOS:  cpu time    0.0003: real time    0.0003
    CHARGE:  cpu time    0.0377: real time    0.0379
    MIXING:  cpu time    0.0030: real time    0.0030
    --------------------------------------------
      LOOP:  cpu time    0.3970: real time    0.3986

 eigenvalue-minimisations  :   480
 total energy-change (2. order) : 0.2152122E+01  (-0.4259601E+00)
 number of electron      20.0000011 magnetization       1.5451371
 augmentation part        0.0942381 magnetization      -0.5109912

 Broyden mixing:
  rms(total) = 0.88533E+00    rms(broyden)= 0.88527E+00
  rms(prec ) = 0.11005E+01
  weight for this iteration     100.00

 eigenvalues of (default mixing * dielectric matrix)
  average eigenvalue GAMMA=   1.0603
  2.7462  2.7462  1.7037  1.7037  1.1117  1.1117  0.7532  0.7532  0.1477  0.7034
  0.7034  0.6459  0.5740  0.5740  0.4939  0.4939

 Free energy of the ion-electron system (eV)
  ---------------------------------------------------
  alpha Z        PSCENC =         1.67626390
  Ewald energy   TEWEN  =      -167.16912795
  -Hartree energ DENC   =     -1468.27319313
  -exchange      EXHF   =         0.00000000
  -V(xc)+E(xc)   XCENC  =        76.41940808
  PAW double counting   =      1601.49392983    -1585.96531767
  entropy T*S    EENTRO =        -0.00425007
  eigenvalues    EBANDS =      -428.53476789
  atomic energy  EATOM  =      1964.82903143
  Solvation  Ediel_sol  =         0.00000000
  ---------------------------------------------------
  free energy    TOTEN  =        -5.52802348 eV

  energy without entropy =       -5.52377341  energy(sigma->0) =       -5.52589844


--------------------------------------------------------------------------------------------------------




--------------------------------------- Iteration      1(  18)  ---------------------------------------


    POTLOK:  cpu time    0.0634: real time    0.0636
    SETDIJ:  cpu time    0.0031: real time    0.0031
     EDDAV:  cpu time    0.2874: real time    0.2884
       DOS:  cpu time    0.0003: real time    0.0003
    CHARGE:  cpu time    0.0374: real time    0.0375
    MIXING:  cpu time    0.0030: real time    0.0030
    --------------------------------------------
      LOOP:  cpu time    0.3947: real time    0.3960

 eigenvalue-minimisations  :   464
 total energy-change (2. order) : 0.7260657E+01  (-0.1036455E+01)
 number of electron      20.0000002 magnetization       1.5646538
 augmentation part        0.3330225 magnetization      -2.4920123

 Broyden mixing:
  rms(total) = 0.14018E+01    rms(broyden)= 0.13994E+01
  rms(prec ) = 0.14933E+01
  weight for this iteration     100.00

 eigenvalues of (default mixing * dielectric matrix)
  average eigenvalue GAMMA=   0.9987
  2.7114  2.7114  1.6808  1.6808  1.1297  1.1297  0.7627  0.7627  0.7177  0.7177
  0.6337  0.5707  0.5707  0.1477  0.4783  0.4783  0.0946

 Free energy of the ion-electron system (eV)
  ---------------------------------------------------
  alpha Z        PSCENC =         1.67626390
  Ewald energy   TEWEN  =      -167.16912795
  -Hartree energ DENC   =     -1480.33563020
  -exchange      EXHF   =         0.00000000
  -V(xc)+E(xc)   XCENC  =        83.28642772
  PAW double counting   =      1879.74230043    -1865.18761262
  entropy T*S    EENTRO =        -0.17540199
  eigenvalues    EBANDS =      -414.93361739
  atomic energy  EATOM  =      1964.82903143
  Solvation  Ediel_sol  =         0.00000000
  ---------------------------------------------------
  free energy    TOTEN  =         1.73263334 eV

  energy without entropy =        1.90803533  energy(sigma->0) =        1.82033433


--------------------------------------------------------------------------------------------------------




--------------------------------------- Iteration      1(  19)  ---------------------------------------


    POTLOK:  cpu time    0.0581: real time    0.0585
    SETDIJ:  cpu time    0.0032: real time    0.0032
     EDDAV:  cpu time    0.4204: real time    0.4219
       DOS:  cpu time    0.0003: real time    0.0003
    CHARGE:  cpu time    0.0370: real time    0.0371
    MIXING:  cpu time    0.0031: real time    0.0031
    --------------------------------------------
      LOOP:  cpu time    0.5221: real time    0.5241

 eigenvalue-minimisations  :   704
 total energy-change (2. order) :-0.5325893E+00  (-0.2093810E-01)
 number of electron      20.0000002 magnetization       1.5954418
 augmentation part        0.3268014 magnetization      -2.4572654

 Broyden mixing:
  rms(total) = 0.13897E+01    rms(broyden)= 0.13895E+01
  rms(prec ) = 0.14839E+01
  weight for this iteration     100.00

 eigenvalues of (default mixing * dielectric matrix)
  average eigenvalue GAMMA=   0.9667
  2.7519  2.7519  1.6952  1.6952  1.1174  1.1174  0.7596  0.7596  0.7182  0.7182
  0.6320  0.5742  0.5742  0.4811  0.4811  0.1477  0.2364  0.1894

 Free energy of the ion-electron system (eV)
  ---------------------------------------------------
  alpha Z        PSCENC =         1.67626390
  Ewald energy   TEWEN  =      -167.16912795
  -Hartree energ DENC   =     -1480.23798958
  -exchange      EXHF   =         0.00000000
  -V(xc)+E(xc)   XCENC  =        82.84374053
  PAW double counting   =      1882.05504484    -1867.48410298
  entropy T*S    EENTRO =        -0.16854236
  eigenvalues    EBANDS =      -415.14427375
  atomic energy  EATOM  =      1964.82903143
  Solvation  Ediel_sol  =         0.00000000
  ---------------------------------------------------
  free energy    TOTEN  =         1.20004408 eV

  energy without entropy =        1.36858644  energy(sigma->0) =        1.28431526


--------------------------------------------------------------------------------------------------------




--------------------------------------- Iteration      1(  20)  ---------------------------------------


    POTLOK:  cpu time    0.0652: real time    0.0654
    SETDIJ:  cpu time    0.0032: real time    0.0032
     EDDAV:  cpu time    0.4203: real time    0.4217
       DOS:  cpu time    0.0027: real time    0.0027
    CHARGE:  cpu time    0.0427: real time    0.0428
    MIXING:  cpu time    0.0033: real time    0.0033
    --------------------------------------------
      LOOP:  cpu time    0.5374: real time    0.5392

 eigenvalue-minimisations  :   720
 total energy-change (2. order) :-0.5366087E+00  (-0.3636767E-02)
 number of electron      20.0000002 magnetization       1.8739245
 augmentation part        0.3216147 magnetization      -2.1801576

 Broyden mixing:
  rms(total) = 0.13176E+01    rms(broyden)= 0.13176E+01
  rms(prec ) = 0.14166E+01
  weight for this iteration     100.00

 eigenvalues of (default mixing * dielectric matrix)
  average eigenvalue GAMMA=   0.9712
  2.6860  2.6860  1.7396  1.7396  1.1095  1.1095  0.7835  0.7835  0.5207  0.5207
  0.5072  0.5072  0.7288  0.7288  0.5997  0.5766  0.5766  0.1477  0.4022

 Free energy of the ion-electron system (eV)
  ---------------------------------------------------
  alpha Z        PSCENC =         1.67626390
  Ewald energy   TEWEN  =      -167.16912795
  -Hartree energ DENC   =     -1481.86870742
  -exchange      EXHF   =         0.00000000
  -V(xc)+E(xc)   XCENC  =        82.47735464
  PAW double counting   =      1846.10137646    -1831.45756676
  entropy T*S    EENTRO =        -0.16264710
  eigenvalues    EBANDS =      -413.76254177
  atomic energy  EATOM  =      1964.82903143
  Solvation  Ediel_sol  =         0.00000000
  ---------------------------------------------------
  free energy    TOTEN  =         0.66343542 eV

  energy without entropy =        0.82608252  energy(sigma->0) =        0.74475897


--------------------------------------------------------------------------------------------------------




--------------------------------------- Iteration      1(  21)  ---------------------------------------


    POTLOK:  cpu time    0.0583: real time    0.0585
    SETDIJ:  cpu time    0.0031: real time    0.0031
     EDDAV:  cpu time    0.4047: real time    0.4061
       DOS:  cpu time    0.0004: real time    0.0004
    CHARGE:  cpu time    0.0382: real time    0.0384
    MIXING:  cpu time    0.0040: real time    0.0040
    --------------------------------------------
      LOOP:  cpu time    0.5087: real time    0.5105

 eigenvalue-minimisations  :   656
 total energy-change (2. order) :-0.1216514E+01  (-0.5421199E-01)
 number of electron      20.0000003 magnetization       2.4422845
 augmentation part        0.3051454 magnetization      -1.6124568

 Broyden mixing:
  rms(total) = 0.11772E+01    rms(broyden)= 0.11771E+01
  rms(prec ) = 0.12907E+01
  weight for this iteration     100.00

 eigenvalues of (default mixing * dielectric matrix)
  average eigenvalue GAMMA=   1.0321
  2.6041  2.6041  2.1681  2.1681  1.1116  1.1116  0.8267  0.8267  0.8998  0.8998
  0.4965  0.4965  0.1477  0.6991  0.6991  0.6356  0.6356  0.6190  0.4957  0.4957

 Free energy of the ion-electron system (eV)
  ---------------------------------------------------
  alpha Z        PSCENC =         1.67626390
  Ewald energy   TEWEN  =      -167.16912795
  -Hartree energ DENC   =     -1485.52711139
  -exchange      EXHF   =         0.00000000
  -V(xc)+E(xc)   XCENC  =        81.93865037
  PAW double counting   =      1841.01969752    -1826.16154863
  entropy T*S    EENTRO =        -0.14769183
  eigenvalues    EBANDS =      -411.01124198
  atomic energy  EATOM  =      1964.82903143
  Solvation  Ediel_sol  =         0.00000000
  ---------------------------------------------------
  free energy    TOTEN  =        -0.55307857 eV

  energy without entropy =       -0.40538674  energy(sigma->0) =       -0.47923265


--------------------------------------------------------------------------------------------------------




--------------------------------------- Iteration      1(  22)  ---------------------------------------


    POTLOK:  cpu time    0.0660: real time    0.0662
    SETDIJ:  cpu time    0.0039: real time    0.0039
     EDDAV:  cpu time    0.3030: real time    0.3043
       DOS:  cpu time    0.0030: real time    0.0030
    CHARGE:  cpu time    0.0433: real time    0.0434
    MIXING:  cpu time    0.0039: real time    0.0042
    --------------------------------------------
      LOOP:  cpu time    0.4231: real time    0.4250

 eigenvalue-minimisations  :   512
 total energy-change (2. order) :-0.2097560E+01  (-0.8713540E-01)
 number of electron      20.0000004 magnetization       3.4200959
 augmentation part        0.2900751 magnetization      -0.6290490

 Broyden mixing:
  rms(total) = 0.94683E+00    rms(broyden)= 0.94680E+00
  rms(prec ) = 0.10941E+01
  weight for this iteration     100.00

 eigenvalues of (default mixing * dielectric matrix)
  average eigenvalue GAMMA=   1.0480
  2.8762  2.8762  2.1053  2.1053  1.2583  1.2583  0.8506  0.8506  0.8789  0.8789
  0.4906  0.4906  0.1477  0.6717  0.6717  0.6932  0.6932  0.6151  0.5521  0.5521
  0.4922

 Free energy of the ion-electron system (eV)
  ---------------------------------------------------
  alpha Z        PSCENC =         1.67626390
  Ewald energy   TEWEN  =      -167.16912795
  -Hartree energ DENC   =     -1488.45986997
  -exchange      EXHF   =         0.00000000
  -V(xc)+E(xc)   XCENC  =        80.72491501
  PAW double counting   =      1799.93093407    -1784.98044564
  entropy T*S    EENTRO =        -0.15140783
  eigenvalues    EBANDS =      -409.05093209
  atomic energy  EATOM  =      1964.82903143
  Solvation  Ediel_sol  =         0.00000000
  ---------------------------------------------------
  free energy    TOTEN  =        -2.65063907 eV

  energy without entropy =       -2.49923124  energy(sigma->0) =       -2.57493515


--------------------------------------------------------------------------------------------------------




--------------------------------------- Iteration      1(  23)  ---------------------------------------


    POTLOK:  cpu time    0.0582: real time    0.0584
    SETDIJ:  cpu time    0.0032: real time    0.0032
     EDDAV:  cpu time    0.3572: real time    0.3584
       DOS:  cpu time    0.0025: real time    0.0025
    CHARGE:  cpu time    0.0399: real time    0.0400
    MIXING:  cpu time    0.0038: real time    0.0038
    --------------------------------------------
      LOOP:  cpu time    0.4647: real time    0.4663

 eigenvalue-minimisations  :   592
 total energy-change (2. order) :-0.2392035E+01  (-0.6732064E-01)
 number of electron      20.0000005 magnetization       3.7005149
 augmentation part        0.3190732 magnetization      -0.3217269

 Broyden mixing:
  rms(total) = 0.59331E+00    rms(broyden)= 0.59306E+00
  rms(prec ) = 0.79175E+00
  weight for this iteration     100.00

 eigenvalues of (default mixing * dielectric matrix)
  average eigenvalue GAMMA=   1.1265
  3.8076  3.8076  1.8147  1.8147  1.4801  1.4801  0.9775  0.9775  0.8326  0.8326
  0.4957  0.4957  0.7245  0.7245  0.1477  0.7285  0.7285  0.6880  0.6880  0.5072
  0.5152  0.5152

 Free energy of the ion-electron system (eV)
  ---------------------------------------------------
  alpha Z        PSCENC =         1.67626390
  Ewald energy   TEWEN  =      -167.16912795
  -Hartree energ DENC   =     -1489.60875003
  -exchange      EXHF   =         0.00000000
  -V(xc)+E(xc)   XCENC  =        78.87111509
  PAW double counting   =      1567.70266041    -1552.89117974
  entropy T*S    EENTRO =        -0.17958831
  eigenvalues    EBANDS =      -408.27309853
  atomic energy  EATOM  =      1964.82903143
  Solvation  Ediel_sol  =         0.00000000
  ---------------------------------------------------
  free energy    TOTEN  =        -5.04267374 eV

  energy without entropy =       -4.86308543  energy(sigma->0) =       -4.95287958


--------------------------------------------------------------------------------------------------------




--------------------------------------- Iteration      1(  24)  ---------------------------------------


    POTLOK:  cpu time    0.0581: real time    0.0583
    SETDIJ:  cpu time    0.0031: real time    0.0031
     EDDAV:  cpu time    0.4204: real time    0.4219
       DOS:  cpu time    0.0003: real time    0.0003
    CHARGE:  cpu time    0.0370: real time    0.0371
    MIXING:  cpu time    0.0040: real time    0.0040
    --------------------------------------------
      LOOP:  cpu time    0.5229: real time    0.5247

 eigenvalue-minimisations  :   704
 total energy-change (2. order) :-0.1603061E+01  (-0.6765337E-01)
 number of electron      20.0000007 magnetization       3.5911914
 augmentation part        0.3492822 magnetization      -0.3981286

 Broyden mixing:
  rms(total) = 0.53060E+00    rms(broyden)= 0.52989E+00
  rms(prec ) = 0.72584E+00
  weight for this iteration     100.00

 eigenvalues of (default mixing * dielectric matrix)
  average eigenvalue GAMMA=   1.0968
  3.7698  3.7698  1.7840  1.7840  1.4611  1.4611  1.0488  1.0488  0.8431  0.8431
  0.7165  0.7165  0.4966  0.4966  0.1477  0.7454  0.7454  0.7065  0.7065  0.5066
  0.5066  0.4607  0.4607

 Free energy of the ion-electron system (eV)
  ---------------------------------------------------
  alpha Z        PSCENC =         1.67626390
  Ewald energy   TEWEN  =      -167.16912795
  -Hartree energ DENC   =     -1483.61458029
  -exchange      EXHF   =         0.00000000
  -V(xc)+E(xc)   XCENC  =        77.14377511
  PAW double counting   =      1532.37055534    -1517.07333339
  entropy T*S    EENTRO =        -0.11400896
  eigenvalues    EBANDS =      -414.69430996
  atomic energy  EATOM  =      1964.82903143
  Solvation  Ediel_sol  =         0.00000000
  ---------------------------------------------------
  free energy    TOTEN  =        -6.64573477 eV

  energy without entropy =       -6.53172581  energy(sigma->0) =       -6.58873029


--------------------------------------------------------------------------------------------------------




--------------------------------------- Iteration      1(  25)  ---------------------------------------


    POTLOK:  cpu time    0.0696: real time    0.0699
    SETDIJ:  cpu time    0.0031: real time    0.0031
     EDDAV:  cpu time    0.3175: real time    0.3186
       DOS:  cpu time    0.0003: real time    0.0003
    CHARGE:  cpu time    0.0376: real time    0.0377
    MIXING:  cpu time    0.0042: real time    0.0042
    --------------------------------------------
      LOOP:  cpu time    0.4323: real time    0.4338

 eigenvalue-minimisations  :   528
 total energy-change (2. order) : 0.3720433E+00  (-0.6177519E-02)
 number of electron      20.0000007 magnetization       3.7128859
 augmentation part        0.3493190 magnetization      -0.2808792

 Broyden mixing:
  rms(total) = 0.52741E+00    rms(broyden)= 0.52738E+00
  rms(prec ) = 0.70524E+00
  weight for this iteration     100.00

 eigenvalues of (default mixing * dielectric matrix)
  average eigenvalue GAMMA=   1.1049
  3.6100  3.6100  1.9655  1.9655  1.4740  1.4740  0.9883  0.9883  0.8949  0.8949
  0.9092  0.9092  0.4954  0.4954  0.1477  0.8076  0.8076  0.6876  0.6876  0.6188
  0.6188  0.4934  0.4934  0.4798

 Free energy of the ion-electron system (eV)
  ---------------------------------------------------
  alpha Z        PSCENC =         1.67626390
  Ewald energy   TEWEN  =      -167.16912795
  -Hartree energ DENC   =     -1483.35101294
  -exchange      EXHF   =         0.00000000
  -V(xc)+E(xc)   XCENC  =        77.19171355
  PAW double counting   =      1578.05160848    -1562.49776185
  entropy T*S    EENTRO =        -0.11338996
  eigenvalues    EBANDS =      -414.89101614
  atomic energy  EATOM  =      1964.82903143
  Solvation  Ediel_sol  =         0.00000000
  ---------------------------------------------------
  free energy    TOTEN  =        -6.27369147 eV

  energy without entropy =       -6.16030152  energy(sigma->0) =       -6.21699649


--------------------------------------------------------------------------------------------------------




--------------------------------------- Iteration      1(  26)  ---------------------------------------


    POTLOK:  cpu time    0.0579: real time    0.0581
    SETDIJ:  cpu time    0.0040: real time    0.0041
     EDDAV:  cpu time    0.3484: real time    0.3496
       DOS:  cpu time    0.0003: real time    0.0003
    CHARGE:  cpu time    0.0369: real time    0.0370
    MIXING:  cpu time    0.0046: real time    0.0046
    --------------------------------------------
      LOOP:  cpu time    0.4521: real time    0.4536

 eigenvalue-minimisations  :   592
 total energy-change (2. order) :-0.4175877E+00  (-0.2623344E-01)
 number of electron      20.0000006 magnetization       4.2752219
 augmentation part        0.3658403 magnetization       0.2937076

 Broyden mixing:
  rms(total) = 0.45618E+00    rms(broyden)= 0.45612E+00
  rms(prec ) = 0.60926E+00
  weight for this iteration     100.00

 eigenvalues of (default mixing * dielectric matrix)
  average eigenvalue GAMMA=   1.1101
  3.3146  3.3146  1.7637  1.7637  1.7689  1.7689  1.3308  1.3308  0.9662  0.9662
  0.8762  0.8762  0.8655  0.8655  0.7117  0.7117  0.4953  0.4953  0.1477  0.6631
  0.6631  0.5410  0.5410  0.5047  0.5047

 Free energy of the ion-electron system (eV)
  ---------------------------------------------------
  alpha Z        PSCENC =         1.67626390
  Ewald energy   TEWEN  =      -167.16912795
  -Hartree energ DENC   =     -1484.22829306
  -exchange      EXHF   =         0.00000000
  -V(xc)+E(xc)   XCENC  =        76.54529213
  PAW double counting   =      1578.67690702    -1561.91576924
  entropy T*S    EENTRO =        -0.10620310
  eigenvalues    EBANDS =      -414.99938025
  atomic energy  EATOM  =      1964.82903143
  Solvation  Ediel_sol  =         0.00000000
  ---------------------------------------------------
  free energy    TOTEN  =        -6.69127913 eV

  energy without entropy =       -6.58507603  energy(sigma->0) =       -6.63817758


--------------------------------------------------------------------------------------------------------




--------------------------------------- Iteration      1(  27)  ---------------------------------------


    POTLOK:  cpu time    0.0586: real time    0.0588
    SETDIJ:  cpu time    0.0031: real time    0.0031
     EDDAV:  cpu time    0.3230: real time    0.3246
       DOS:  cpu time    0.0003: real time    0.0003
    CHARGE:  cpu time    0.0369: real time    0.0370
    MIXING:  cpu time    0.0046: real time    0.0047
    --------------------------------------------
      LOOP:  cpu time    0.4265: real time    0.4285

 eigenvalue-minimisations  :   512
 total energy-change (2. order) : 0.7483412E+00  (-0.2758067E-01)
 number of electron      20.0000006 magnetization       4.3566914
 augmentation part        0.3836848 magnetization       0.3812473

 Broyden mixing:
  rms(total) = 0.34663E+00    rms(broyden)= 0.34655E+00
  rms(prec ) = 0.49594E+00
  weight for this iteration     100.00

 eigenvalues of (default mixing * dielectric matrix)
  average eigenvalue GAMMA=   1.1300
  4.0940  2.7259  2.7259  1.8721  1.8721  1.5427  1.5427  0.9967  0.9967  0.8771
  0.8771  0.9725  0.9725  0.4954  0.4954  0.7159  0.7159  0.1477  0.7971  0.5862
  0.5862  0.6336  0.6336  0.5062  0.5062  0.4934

 Free energy of the ion-electron system (eV)
  ---------------------------------------------------
  alpha Z        PSCENC =         1.67626390
  Ewald energy   TEWEN  =      -167.16912795
  -Hartree energ DENC   =     -1485.58135842
  -exchange      EXHF   =         0.00000000
  -V(xc)+E(xc)   XCENC  =        77.37321209
  PAW double counting   =      1536.08617790    -1518.85602804
  entropy T*S    EENTRO =        -0.13002178
  eigenvalues    EBANDS =      -414.17108705
  atomic energy  EATOM  =      1964.82903143
  Solvation  Ediel_sol  =         0.00000000
  ---------------------------------------------------
  free energy    TOTEN  =        -5.94293792 eV

  energy without entropy =       -5.81291614  energy(sigma->0) =       -5.87792703


--------------------------------------------------------------------------------------------------------




--------------------------------------- Iteration      1(  28)  ---------------------------------------


    POTLOK:  cpu time    0.0575: real time    0.0576
    SETDIJ:  cpu time    0.0031: real time    0.0031
     EDDAV:  cpu time    0.3164: real time    0.3175
       DOS:  cpu time    0.0003: real time    0.0003
    CHARGE:  cpu time    0.0385: real time    0.0386
[...]
     12      -3.7194      0.52454
     13      -3.7192      0.52425
     14      -2.7092      0.00000
     15      -0.9541      0.00000
     16      -0.9150      0.00000

 k-point     3 :       0.3750    0.3750    0.1250
  band No.  band energies     occupation 
      1     -59.2946      1.00000
      2     -35.8458      1.00000
      3     -35.4097      1.00000
      4     -35.4097      1.00000
      5     -19.3947      1.00000
      6      -8.5545      1.00000
      7      -7.6703      1.00000
      8      -7.6703      1.00000
      9      -4.4137      1.00000
     10      -3.9927      0.97693
     11      -3.9872      0.97474
     12      -3.7193      0.52441
     13      -3.7192      0.52423
     14      -2.7088      0.00000
     15      -0.9494      0.00000
     16      -0.9482      0.00000

 k-point     4 :       0.1250    0.1250    0.3750
  band No.  band energies     occupation 
      1     -59.2947      1.00000
      2     -35.8458      1.00000
      3     -35.4097      1.00000
      4     -35.4096      1.00000
      5     -19.3947      1.00000
      6      -8.5545      1.00000
      7      -7.6703      1.00000
      8      -7.6703      1.00000
      9      -4.4142      1.00000
     10      -3.9928      0.97699
     11      -3.9872      0.97474
     12      -3.7192      0.52397
     13      -3.7191      0.52376
     14      -2.7053      0.00000
     15      -0.9189      0.00000
     16      -0.9176      0.00000

 k-point     5 :       0.3750    0.1250    0.3750
  band No.  band energies     occupation 
      1     -59.2946      1.00000
      2     -35.8458      1.00000
      3     -35.4097      1.00000
      4     -35.4096      1.00000
      5     -19.3947      1.00000
      6      -8.5545      1.00000
      7      -7.6703      1.00000
      8      -7.6703      1.00000
      9      -4.4139      1.00000
     10      -3.9927      0.97695
     11      -3.9872      0.97472
     12      -3.7192      0.52404
     13      -3.7191      0.52373
     14      -2.7050      0.00000
     15      -0.9524      0.00000
     16      -0.9147      0.00000

 k-point     6 :       0.3750    0.3750    0.3750
  band No.  band energies     occupation 
      1     -59.2947      1.00000
      2     -35.8458      1.00000
      3     -35.4097      1.00000
      4     -35.4097      1.00000
      5     -19.3947      1.00000
      6      -8.5546      1.00000
      7      -7.6703      1.00000
      8      -7.6703      1.00000
      9      -4.4137      1.00000
     10      -3.9927      0.97695
     11      -3.9873      0.97476
     12      -3.7193      0.52426
     13      -3.7192      0.52422
     14      -2.7047      0.00000
     15      -0.9480      0.00000
     16      -0.9469      0.00000

 spin component 2

 k-point     1 :       0.1250    0.1250    0.1250
  band No.  band energies     occupation 
      1     -57.6435      1.00000
      2     -34.3455      1.00000
      3     -33.3163      1.00000
      4     -33.3163      1.00000
      5     -19.4039      1.00000
      6      -8.3854      1.00000
      7      -7.5278      1.00000
      8      -7.5278      1.00000
      9      -2.1762      0.00000
     10      -1.8129      0.00000
     11      -1.8128      0.00000
     12      -1.5774      0.00000
     13      -1.3656      0.00000
     14      -1.3458      0.00000
     15       0.2879      0.00000
     16       0.5521      0.00000

 k-point     2 :       0.3750    0.1250    0.1250
  band No.  band energies     occupation 
      1     -57.6435      1.00000
      2     -34.3455      1.00000
      3     -33.3163      1.00000
      4     -33.3163      1.00000
      5     -19.4039      1.00000
      6      -8.3854      1.00000
      7      -7.5278      1.00000
      8      -7.5278      1.00000
      9      -2.1746      0.00000
     10      -1.8131      0.00000
     11      -1.8129      0.00000
     12      -1.5768      0.00000
     13      -1.3659      0.00000
     14      -1.3452      0.00000
     15       0.2572      0.00000
     16       0.4645      0.00000

 k-point     3 :       0.3750    0.3750    0.1250
  band No.  band energies     occupation 
      1     -57.6435      1.00000
      2     -34.3455      1.00000
      3     -33.3163      1.00000
      4     -33.3163      1.00000
      5     -19.4039      1.00000
      6      -8.3854      1.00000
      7      -7.5278      1.00000
      8      -7.5278      1.00000
      9      -2.1730      0.00000
     10      -1.8131      0.00000
     11      -1.8130      0.00000
     12      -1.5762      0.00000
     13      -1.3661      0.00000
     14      -1.3446      0.00000
     15       0.3087      0.00000
     16       0.3512      0.00000

 k-point     4 :       0.1250    0.1250    0.3750
  band No.  band energies     occupation 
      1     -57.6435      1.00000
      2     -34.3455      1.00000
      3     -33.3163      1.00000
      4     -33.3163      1.00000
      5     -19.4039      1.00000
      6      -8.3854      1.00000
      7      -7.5279      1.00000
      8      -7.5278      1.00000
      9      -2.1752      0.00000
     10      -1.8125      0.00000
     11      -1.8124      0.00000
     12      -1.5688      0.00000
     13      -1.3656      0.00000
     14      -1.3457      0.00000
     15       0.2930      0.00000
     16       0.4735      0.00000

 k-point     5 :       0.3750    0.1250    0.3750
  band No.  band energies     occupation 
      1     -57.6435      1.00000
      2     -34.3455      1.00000
      3     -33.3163      1.00000
      4     -33.3163      1.00000
      5     -19.4039      1.00000
      6      -8.3854      1.00000
      7      -7.5278      1.00000
      8      -7.5278      1.00000
      9      -2.1736      0.00000
     10      -1.8126      0.00000
     11      -1.8124      0.00000
     12      -1.5683      0.00000
     13      -1.3658      0.00000
     14      -1.3451      0.00000
     15       0.3126      0.00000
     16       0.4097      0.00000

 k-point     6 :       0.3750    0.3750    0.3750
  band No.  band energies     occupation 
      1     -57.6435      1.00000
      2     -34.3455      1.00000
      3     -33.3163      1.00000
      4     -33.3163      1.00000
      5     -19.4039      1.00000
      6      -8.3855      1.00000
      7      -7.5279      1.00000
      8      -7.5278      1.00000
      9      -2.1722      0.00000
     10      -1.8127      0.00000
     11      -1.8127      0.00000
     12      -1.5678      0.00000
     13      -1.3661      0.00000
     14      -1.3447      0.00000
     15       0.3565      0.00000
     16       0.4899      0.00000


--------------------------------------------------------------------------------------------------------


 soft charge-density along one line, spin component           1
         0         1         2         3         4         5         6         7         8         9
 total charge-density along one line
 
 soft charge-density along one line, spin component           2
         0         1         2         3         4         5         6         7         8         9
 total charge-density along one line
 
 pseudopotential strength for first ion, spin component:           1
  6.923 -25.974   0.000   0.006   0.000  -0.000  -0.019  -0.000
-25.974  14.341   0.000   0.013   0.000  -0.000  -0.002  -0.000
  0.000   0.000 -13.108  -0.000  -0.000  10.259   0.000   0.000
  0.006   0.013  -0.000 -13.221  -0.000   0.000  10.380   0.000
  0.000   0.000  -0.000  -0.000 -13.108   0.000   0.000  10.259
 -0.000  -0.000  10.259   0.000   0.000   5.244  -0.000  -0.000
 -0.019  -0.002   0.000  10.380   0.000  -0.000   5.164  -0.000
 -0.000  -0.000   0.000   0.000  10.259  -0.000  -0.000   5.244
 -0.000  -0.000   0.000  -0.000   0.000  -0.000   0.000  -0.000
 -0.000  -0.000   0.007   0.000  -0.000  -0.010  -0.000   0.000
 -0.045  -0.024  -0.000   0.006  -0.000   0.000  -0.019  -0.000
 -0.000  -0.000  -0.000   0.000   0.007   0.000  -0.000  -0.010
  0.000  -0.000  -0.000   0.000   0.000   0.000  -0.000  -0.000
 -0.000  -0.000   0.000  -0.000   0.000  -0.000   0.000  -0.000
 -0.000  -0.000   0.009   0.000  -0.000  -0.013  -0.000   0.000
 -0.058  -0.030  -0.000   0.008  -0.000   0.000  -0.023   0.000
 -0.000  -0.000  -0.000   0.000   0.009   0.000  -0.000  -0.013
 -0.000  -0.000  -0.000   0.000   0.000   0.000  -0.000  -0.000
 pseudopotential strength for first ion, spin component:           2
  6.664 -25.266   0.000   0.006   0.000  -0.000  -0.021  -0.000
-25.266  13.712   0.000   0.014   0.000  -0.000  -0.001  -0.000
  0.000   0.000 -12.733  -0.000  -0.000   9.828   0.000   0.000
  0.006   0.014  -0.000 -12.914  -0.000   0.000  10.036   0.000
  0.000   0.000  -0.000  -0.000 -12.733   0.000   0.000   9.828
 -0.000  -0.000   9.828   0.000   0.000   5.421  -0.000  -0.000
 -0.021  -0.001   0.000  10.036   0.000  -0.000   5.317  -0.000
 -0.000  -0.000   0.000   0.000   9.828  -0.000  -0.000   5.421
 -0.000  -0.000   0.000   0.000   0.000  -0.000  -0.000  -0.000
 -0.000  -0.000   0.012   0.000   0.000  -0.018  -0.000  -0.000
 -0.071  -0.033  -0.000  -0.002  -0.000   0.000  -0.010   0.000
 -0.000  -0.000   0.000   0.000   0.012  -0.000  -0.000  -0.018
  0.000   0.000  -0.000  -0.000   0.000   0.000   0.000  -0.000
 -0.000  -0.000   0.000   0.000   0.000  -0.000  -0.000  -0.000
 -0.000  -0.000   0.016   0.000   0.000  -0.023  -0.000  -0.000
 -0.093  -0.041  -0.000  -0.002  -0.000   0.000  -0.011   0.000
 -0.000  -0.000   0.000   0.000   0.016  -0.000  -0.000  -0.023
 -0.000  -0.000  -0.000  -0.000   0.000   0.000   0.000  -0.000
 total augmentation occupancy for first ion, spin component:           1
  2.000  -0.010   0.000  -0.002   0.000   0.000  -0.006   0.000   0.000   0.000  -0.059   0.000   0.000   0.000   0.000   0.057
 -0.010   1.079   0.000  -0.054   0.000   0.000   0.070   0.000   0.000   0.000   0.290   0.000  -0.000   0.000   0.000  -0.390
  0.000   0.000   1.996   0.000   0.000  -0.006   0.000   0.000   0.000  -0.061   0.000   0.000   0.000  -0.000   0.041   0.000
 -0.002  -0.054   0.000   2.000  -0.000   0.000  -0.009   0.000   0.000  -0.000  -0.135   0.000   0.000   0.000   0.000   0.066
  0.000   0.000   0.000  -0.000   1.996   0.000   0.000  -0.006   0.000   0.000  -0.000  -0.061   0.000   0.000  -0.000  -0.000
  0.000   0.000  -0.006   0.000   0.000   0.006   0.000   0.000   0.000   0.020  -0.000   0.000   0.000  -0.000  -0.024  -0.000
 -0.006   0.070   0.000  -0.009   0.000   0.000   0.031   0.000   0.000   0.000   0.282   0.000  -0.000   0.000   0.000  -0.143
  0.000   0.000   0.000   0.000  -0.006   0.000   0.000   0.006   0.000   0.000   0.000   0.020   0.000   0.000   0.000   0.000
  0.000   0.000  -0.000   0.000   0.000  -0.000   0.000   0.000   1.455   0.000   0.000  -0.000   0.000  -0.199   0.000   0.000
  0.000   0.000  -0.061  -0.000   0.000   0.020   0.000   0.000   0.000   1.215   0.000   0.000   0.000   0.000  -0.332   0.000
 -0.059   0.290   0.000  -0.135   0.000   0.000   0.282   0.000   0.000  -0.000   2.741   0.000  -0.000   0.000   0.000  -1.280
  0.000   0.000   0.000   0.000  -0.061   0.000   0.000   0.020   0.000   0.000   0.000   1.215   0.000  -0.000   0.000   0.000
  0.000  -0.000   0.000   0.000   0.000   0.000  -0.000   0.000   0.000   0.000  -0.000   0.000   1.417  -0.000   0.000   0.000
  0.000   0.000  -0.000   0.000   0.000  -0.000   0.000   0.000  -0.199   0.000   0.000  -0.000  -0.000   0.027  -0.000   0.000
  0.000  -0.000   0.041   0.000  -0.000  -0.024   0.000   0.000   0.000  -0.332   0.000   0.000   0.000  -0.000   0.153   0.000
  0.057  -0.390   0.000   0.066  -0.000   0.000  -0.143   0.000   0.000   0.000  -1.280   0.000   0.000   0.000   0.000   0.673
  0.000   0.000   0.000   0.000   0.041   0.000  -0.000  -0.024   0.000   0.000   0.000  -0.332   0.000   0.000   0.000   0.000
 -0.000   0.000   0.000  -0.000   0.000  -0.000   0.000  -0.000   0.000   0.000   0.000   0.000  -0.180   0.000  -0.000  -0.000
 total augmentation occupancy for first ion, spin component:           2
  0.004   0.029   0.000  -0.000   0.000  -0.000  -0.000   0.000   0.000   0.000  -0.060   0.000   0.000   0.000   0.000   0.041
  0.029   0.769   0.000   0.006   0.000   0.000  -0.026   0.000   0.000   0.000  -0.530   0.000   0.000   0.000   0.000   0.057
  0.000   0.000   0.008   0.000   0.000   0.021   0.000  -0.000   0.000  -0.016   0.000   0.000   0.000   0.000   0.019   0.000
 -0.000   0.006   0.000   0.004   0.000   0.000   0.009   0.000   0.000  -0.000   0.003   0.000  -0.000   0.000   0.000  -0.008
  0.000   0.000   0.000   0.000   0.008   0.000   0.000   0.021  -0.000   0.000   0.000  -0.016   0.000   0.000   0.000   0.000
 -0.000   0.000   0.021   0.000   0.000   0.002   0.000   0.000   0.000  -0.024  -0.000   0.000  -0.000   0.000  -0.002   0.000
 -0.000  -0.026   0.000   0.009   0.000  -0.000   0.000   0.000   0.000  -0.000   0.023   0.000  -0.000   0.000   0.000   0.000
  0.000   0.000  -0.000   0.000   0.021   0.000   0.000   0.002   0.000   0.000   0.000  -0.024  -0.000   0.000   0.000   0.000
  0.000   0.000   0.000   0.000  -0.000   0.000   0.000   0.000   1.455   0.000   0.000  -0.000  -0.000  -0.199   0.000   0.000
  0.000   0.000  -0.016  -0.000   0.000  -0.024  -0.000   0.000   0.000   0.687   0.000   0.000   0.000   0.000  -0.074   0.000
 -0.060  -0.530   0.000   0.003  -0.000  -0.000   0.023   0.000   0.000   0.000   0.537   0.000  -0.000   0.000  -0.000  -0.065
  0.000   0.000   0.000   0.000  -0.016   0.000   0.000  -0.024   0.000   0.000   0.000   0.687   0.000   0.000   0.000   0.000
  0.000   0.000   0.000  -0.000   0.000  -0.000  -0.000  -0.000  -0.000   0.000  -0.000   0.000   1.417  -0.000   0.000   0.000
  0.000   0.000   0.000   0.000   0.000   0.000   0.000   0.000  -0.199   0.000   0.000   0.000  -0.000   0.027   0.000   0.000
  0.000  -0.000   0.019   0.000   0.000  -0.002   0.000   0.000   0.000  -0.074  -0.000   0.000   0.000   0.000   0.026   0.000
  0.041   0.057   0.000  -0.008   0.000  -0.000   0.000   0.000   0.000   0.000  -0.065   0.000   0.000   0.000   0.000  -0.004
 -0.000   0.000   0.000   0.000   0.019   0.000   0.000  -0.002   0.000   0.000   0.000  -0.074   0.000  -0.000   0.000   0.000
 -0.000  -0.000   0.000   0.000  -0.000   0.000  -0.000   0.000   0.000   0.000   0.000   0.000  -0.180   0.000   0.000  -0.000


------------------------ aborting loop because EDIFF is reached ----------------------------------------


    CHARGE:  cpu time    0.0384: real time    0.0386
    FORLOC:  cpu time    0.0013: real time    0.0013
    FORNL :  cpu time    0.0241: real time    0.0243
    STRESS:  cpu time    0.2773: real time    0.2787
    FORCOR:  cpu time    0.0550: real time    0.0552
    FORHAR:  cpu time    0.0055: real time    0.0055
    MIXING:  cpu time    0.0012: real time    0.0012
    OFIELD:  cpu time    0.0000: real time    0.0000

  FORCE on cell =-STRESS in cart. coord.  units (eV):
  Direction    XX          YY          ZZ          XY          YZ          ZX
  --------------------------------------------------------------------------------------
  Alpha Z     1.67626     1.67626     1.67626
  Ewald    -230.75264  -230.75264   362.76425    -0.00000     0.00000    -0.00000
  Hartree   391.22930   391.22930   761.16151    -0.00000    -0.00000    -0.00000
  E(xc)     -85.13703   -85.13703   -84.78908     0.00000    -0.00000    -0.00000
  Local    -526.51936  -526.51936 -1461.45852    -0.00000    -0.00000    -0.00000
  n-local    67.55672    67.55914    78.75313     0.00007     0.00022    -0.00027
  augment     1.69567     1.69567    -0.54426     0.00000     0.00000     0.00000
  Kinetic   379.95580   379.94732   342.02882     0.00000    -0.00083     0.00090
  Fock        0.00000     0.00000     0.00000     0.00000     0.00000     0.00000
  -------------------------------------------------------------------------------------
  Total      -0.29831    -0.29831    -0.40788     0.00000     0.00000     0.00000
  in kB      -0.27659    -0.27659    -0.37818     0.00000     0.00000     0.00000
  external pressure =       -0.31 kB  Pullay stress =        0.00 kB


 VOLUME and BASIS-vectors are now :
 -----------------------------------------------------------------------------
  energy-cutoff  :      293.24
  volume of cell :     1728.00
      direct lattice vectors                 reciprocal lattice vectors
    12.000000000  0.000000000  0.000000000     0.083333333  0.000000000  0.000000000
     0.000000000 12.000000000  0.000000000     0.000000000  0.083333333  0.000000000
     0.000000000  0.000000000 12.000000000     0.000000000  0.000000000  0.083333333

  length of vectors
    12.000000000 12.000000000 12.000000000     0.083333333  0.083333333  0.083333333


 FORCES acting on ions
    electron-ion (+dipol)            ewald-force                    non-local-force                 convergence-correction
 -----------------------------------------------------------------------------------------------
   0.906E-14 0.123E-11 0.249E+03   -.112E-15 -.788E-17 -.243E+03   -.847E-21 0.424E-21 -.617E+01   0.389E-13 0.720E-13 -.165E-01
   -.918E-14 -.452E-12 -.242E+03   -.410E-17 -.890E-17 0.243E+03   0.847E-21 0.000E+00 -.828E+00   -.307E-13 -.159E-13 -.292E-01
 -----------------------------------------------------------------------------------------------
   -.115E-15 0.775E-12 0.703E+01   -.116E-15 -.168E-16 0.000E+00   0.000E+00 0.424E-21 -.699E+01   0.811E-14 0.561E-13 -.458E-01
 
 
 POSITION                                       TOTAL-FORCE (eV/Angst)
 -----------------------------------------------------------------------------------
      0.00000     -0.00000      0.26110        -0.000000     -0.000000      0.039527
     -0.00000      0.00000      2.54615         0.000000      0.000000     -0.039527
 -----------------------------------------------------------------------------------
    total drift:                                0.000000      0.000000     -0.007982


--------------------------------------------------------------------------------------------------------



  FREE ENERGIE OF THE ION-ELECTRON SYSTEM (eV)
  ---------------------------------------------------
  free  energy   TOTEN  =        -8.25769611 eV

  energy  without entropy=       -8.12901122  energy(sigma->0) =       -8.19335366
 
 d Force = 0.9399092E-03[-0.586E-03, 0.247E-02]  d Energy = 0.5587310E-03 0.381E-03
 d Force = 0.3627693E+01[ 0.360E+01, 0.365E+01]  d Ewald  = 0.3627614E+01 0.792E-04


--------------------------------------------------------------------------------------------------------


    POTLOK:  cpu time    0.0611: real time    0.0614


--------------------------------------------------------------------------------------------------------




--------------------------------------------------------------------------------------------------------


  
 reached required accuracy - stopping structural energy minimisation
 writing wavefunctions
     LOOP+:  cpu time    2.1855: real time    2.3200
    4ORBIT:  cpu time    0.0000: real time    0.0000

 total amount of memory used by VASP MPI-rank0    87240. kBytes
=======================================================================

   base      :      30000. kBytes
   nonl-proj :      34749. kBytes
   fftplans  :       2864. kBytes
   grid      :      15769. kBytes
   one-center:         62. kBytes
   wavefun   :       3796. kBytes
 
  
  
 General timing and accounting informations for this job:
 ========================================================
  
                  Total CPU time used (sec):       44.463
                            User time (sec):       41.905
                          System time (sec):        2.558
                         Elapsed time (sec):       45.713
  
                   Maximum memory used (kb):      249088.
                   Average memory used (kb):           0.
  
                          Minor page faults:        67862
                          Major page faults:           42
                 Voluntary context switches:         8513
