 vasp.5.4.1 05Feb16 (build Mar 19 2020 08:54:17) complex                        
  
 executed on           IFC91_ompi date 2022.01.25  14:40:59
 running on   96 total cores
 distrk:  each k-point on   96 cores,    1 groups
 distr:  one band on NCORES_PER_BAND=  24 cores,    4 groups


--------------------------------------------------------------------------------------------------------


 INCAR:
 POTCAR:   PAW_PBE Ni 06Sep2000                   
 POTCAR:    PAW_PBE Nb_sv 25May2007               
 POTCAR:    PAW_PBE W 08Apr2002                   
 POTCAR:    PAW_PBE Cl 17Jan2003                  

 ----------------------------------------------------------------------------- 
|                                                                             |
|           W    W    AA    RRRRR   N    N  II  N    N   GGGG   !!!           |
|           W    W   A  A   R    R  NN   N  II  NN   N  G    G  !!!           |
|           W    W  A    A  R    R  N N  N  II  N N  N  G       !!!           |
|           W WW W  AAAAAA  RRRRR   N  N N  II  N  N N  G  GGG   !            |
|           WW  WW  A    A  R   R   N   NN  II  N   NN  G    G                |
|           W    W  A    A  R    R  N    N  II  N    N   GGGG   !!!           |
|                                                                             |
|      For optimal performance we recommend to set                            |
|        NCORE= 4 - approx SQRT( number of cores)                             |
|      NCORE specifies how many cores store one orbital (NPAR=cpu/NCORE).     |
|      This setting can  greatly improve the performance of VASP for DFT.     |
|      The default, NPAR=number of cores might be grossly inefficient         |
|      on modern multi-core architectures or massively parallel machines.     |
|      Do your own testing !!!!                                               |
|      Unfortunately you need to use the default for GW and RPA calculations. |
|      (for HF NCORE is supported but not extensively tested yet)             |
|                                                                             |
 ----------------------------------------------------------------------------- 

 POTCAR:   PAW_PBE Ni 06Sep2000                   
   VRHFIN =Ni:                                                                  
   LEXCH  = PE                                                                  
   EATOM  =  1077.9025 eV,   79.2236 Ry                                         
                                                                                
   TITEL  = PAW_PBE Ni 06Sep2000                                                
   LULTRA =        F    use ultrasoft PP ?                                      
   IUNSCR =        1    unscreen: 0-lin 1-nonlin 2-no                           
   RPACOR =    2.000    partial core radius                                     
   POMASS =   58.690; ZVAL   =   10.000    mass and valenz                      
   RCORE  =    2.300    outmost cutoff radius                                   
   RWIGS  =    2.430; RWIGS  =    1.286    wigner-seitz radius (au A)           
   ENMAX  =  269.533; ENMIN  =  202.150 eV                                      
   RCLOC  =    1.681    cutoff for local pot                                    
   LCOR   =        T    correct aug charges                                     
   LPAW   =        T    paw PP                                                  
   EAUG   =  544.565                                                            
   DEXC   =    -.009                                                            
   RMAX   =    2.808    core radius for proj-oper                               
   RAUG   =    1.300    factor for augmentation sphere                          
   RDEP   =    2.390    radius for radial grids                                 
   QCUT   =   -4.451; QGAM   =    8.902    optimization parameters              
                                                                                
   Description                                                                  
     l     E      TYP  RCUT    TYP  RCUT                                        
     2   .000     23  2.300                                                     
     2   .000     23  2.300                                                     
     0   .000     23  2.300                                                     
     0   .000     23  2.300                                                     
     1  -.200     23  2.300                                                     
     1   .000     23  2.300                                                     
     3   .000      7   .000                                                     
  local pseudopotential read in
  partial core-charges read in
  atomic valenz-charges read in
  non local Contribution for L=           2  read in
    real space projection operators read in
  non local Contribution for L=           2  read in
    real space projection operators read in
  non local Contribution for L=           0  read in
    real space projection operators read in
  non local Contribution for L=           0  read in
    real space projection operators read in
  non local Contribution for L=           1  read in
    real space projection operators read in
  non local Contribution for L=           1  read in
    real space projection operators read in
    PAW grid and wavefunctions read in
 
   number of l-projection  operators is LMAX  =           6
   number of lm-projection operators is LMMAX =          18
 
 POTCAR:    PAW_PBE Nb_sv 25May2007               
   VRHFIN =Nb: 4p5s4d                                                           
   LEXCH  = PE                                                                  
   EATOM  =  1555.1913 eV,  114.3033 Ry                                         
                                                                                
   TITEL  = PAW_PBE Nb_sv 25May2007                                             
   LULTRA =        F    use ultrasoft PP ?                                      
   IUNSCR =        1    unscreen: 0-lin 1-nonlin 2-no                           
   RPACOR =    1.800    partial core radius                                     
   POMASS =   92.910; ZVAL   =   13.000    mass and valenz                      
   RCORE  =    2.400    outmost cutoff radius                                   
   RWIGS  =    2.400; RWIGS  =    1.270    wigner-seitz radius (au A)           
   ENMAX  =  293.235; ENMIN  =  219.927 eV                                      
   ICORE  =        3    local potential                                         
   LCOR   =        T    correct aug charges                                     
   LPAW   =        T    paw PP                                                  
   EAUG   =  455.659                                                            
   DEXC   =    0.000                                                            
   RMAX   =    2.456    core radius for proj-oper                               
   RAUG   =    1.300    factor for augmentation sphere                          
   RDEP   =    2.451    radius for radial grids                                 
   RDEPT  =    1.956    core radius for aug-charge                              
                                                                                
   Atomic configuration                                                         
   11 entries                                                                   
     n  l   j            E        occ.                                          
     1  0  0.50    -18805.2457   2.0000                                         
     2  0  0.50     -2630.2869   2.0000                                         
     2  1  1.50     -2348.4046   6.0000                                         
     3  0  0.50      -438.8757   2.0000                                         
     3  1  1.50      -346.7588   6.0000                                         
     3  2  2.50      -196.2560  10.0000                                         
     4  0  0.50       -58.3859   2.0000                                         
     5  0  0.50        -3.9816   1.0000                                         
     4  1  1.50       -34.5141   6.0000                                         
     4  2  2.50        -3.0408   4.0000                                         
     4  3  2.50        -1.3606   0.0000                                         
   Description                                                                  
     l       E           TYP  RCUT    TYP  RCUT                                 
     0    -58.3859094     23  2.200                                             
     0     -3.9816262     23  2.200                                             
     1    -34.5140738     23  2.200                                             
     1     13.6058260     23  2.200                                             
     2     -3.0408010     23  2.200                                             
     2     -0.1283038     23  2.200                                             
     3     -1.3605826     23  2.400                                             
  local pseudopotential read in
  partial core-charges read in
  partial kinetic energy density read in
  atomic valenz-charges read in
  non local Contribution for L=           0  read in
    real space projection operators read in
  non local Contribution for L=           0  read in
    real space projection operators read in
  non local Contribution for L=           1  read in
    real space projection operators read in
  non local Contribution for L=           1  read in
    real space projection operators read in
  non local Contribution for L=           2  read in
    real space projection operators read in
  non local Contribution for L=           2  read in
    real space projection operators read in
    PAW grid and wavefunctions read in
 
   number of l-projection  operators is LMAX  =           6
   number of lm-projection operators is LMMAX =          18
 
 POTCAR:    PAW_PBE W 08Apr2002                   
   VRHFIN =W : 6s5d                                                             
   LEXCH  = PE                                                                  
   EATOM  =   204.6103 eV,   15.0384 Ry                                         
                                                                                
   TITEL  = PAW_PBE W 08Apr2002                                                 
   LULTRA =        F    use ultrasoft PP ?                                      
   IUNSCR =        1    unscreen: 0-lin 1-nonlin 2-no                           
   RPACOR =    2.330    partial core radius                                     
   POMASS =  183.850; ZVAL   =    6.000    mass and valenz                      
   RCORE  =    2.750    outmost cutoff radius                                   
   RWIGS  =    2.750; RWIGS  =    1.455    wigner-seitz radius (au A)           
   ENMAX  =  223.057; ENMIN  =  167.293 eV                                      
   RCLOC  =    2.147    cutoff for local pot                                    
   LCOR   =        T    correct aug charges                                     
   LPAW   =        T    paw PP                                                  
   EAUG   =  373.438                                                            
   DEXC   =    0.000                                                            
   RMAX   =    2.801    core radius for proj-oper                               
   RAUG   =    1.300    factor for augmentation sphere                          
   RDEP   =    2.886    radius for radial grids                                 
   RDEPT  =    2.230    core radius for aug-charge                              
                                                                                
   Atomic configuration                                                         
   16 entries                                                                   
     n  l   j            E        occ.                                          
     1  0  0.50    -69465.5836   2.0000                                         
     2  0  0.50    -11986.2642   2.0000                                         
     2  1  1.50    -10479.8616   6.0000                                         
     3  0  0.50     -2759.0758   2.0000                                         
     3  1  1.50     -2313.1857   6.0000                                         
     3  2  2.50     -1801.1185  10.0000                                         
     4  0  0.50      -567.6791   2.0000                                         
     4  1  1.50      -421.4694   6.0000                                         
     4  2  2.50      -236.3473  10.0000                                         
     4  3  3.50       -31.2666  14.0000                                         
     5  0  0.50       -77.1085   2.0000                                         
     5  1  1.50       -41.3856   6.0000                                         
     5  2  2.50        -3.3185   5.0000                                         
     6  0  0.50        -5.1438   1.0000                                         
     6  1  0.50        -3.8096   0.0000                                         
     5  3  2.50        -1.3606   0.0000                                         
   Description                                                                  
     l       E           TYP  RCUT    TYP  RCUT                                 
     2     -3.3185288     23  2.500                                             
     2     -1.5965414     23  2.500                                             
     0     -5.1438054     23  2.500                                             
     0      4.9117504     23  2.500                                             
     1      2.7211652     23  2.750                                             
     1     27.2116520     23  2.750                                             
  local pseudopotential read in
  partial core-charges read in
  partial kinetic energy density read in
  atomic valenz-charges read in
  non local Contribution for L=           2  read in
    real space projection operators read in
  non local Contribution for L=           2  read in
    real space projection operators read in
  non local Contribution for L=           0  read in
    real space projection operators read in
  non local Contribution for L=           0  read in
    real space projection operators read in
  non local Contribution for L=           1  read in
    real space projection operators read in
  non local Contribution for L=           1  read in
    real space projection operators read in
    PAW grid and wavefunctions read in
 
   number of l-projection  operators is LMAX  =           6
   number of lm-projection operators is LMMAX =          18
 
 POTCAR:    PAW_PBE Cl 17Jan2003                  
   VRHFIN =Cl: s2p5                                                             
   LEXCH  = PE                                                                  
   EATOM  =   409.7259 eV,   30.1140 Ry                                         
                                                                                
   TITEL  = PAW_PBE Cl 17Jan2003                                                
   LULTRA =        F    use ultrasoft PP ?                                      
   IUNSCR =        1    unscreen: 0-lin 1-nonlin 2-no                           
   RPACOR =    1.500    partial core radius                                     
   POMASS =   35.453; ZVAL   =    7.000    mass and valenz                      
   RCORE  =    1.900    outmost cutoff radius                                   
   RWIGS  =    2.100; RWIGS  =    1.111    wigner-seitz radius (au A)           
   ENMAX  =  280.000; ENMIN  =  196.854 eV                                      
   ICORE  =        2    local potential                                         
   LCOR   =        T    correct aug charges                                     
   LPAW   =        T    paw PP                                                  
   EAUG   =  356.192                                                            
   DEXC   =     .000                                                            
   RMAX   =    2.846    core radius for proj-oper                               
   RAUG   =    1.300    factor for augmentation sphere                          
   RDEP   =    2.020    radius for radial grids                                 
   QCUT   =   -4.392; QGAM   =    8.784    optimization parameters              
                                                                                
   Description                                                                  
     l     E      TYP  RCUT    TYP  RCUT                                        
     0   .000     23  1.900                                                     
     0   .000     23  1.900                                                     
     1   .000     23  1.900                                                     
     1   .000     23  1.900                                                     
     2   .000     23  1.900                                                     
  local pseudopotential read in
  partial core-charges read in
  atomic valenz-charges read in
  non local Contribution for L=           0  read in
    real space projection operators read in
  non local Contribution for L=           0  read in
    real space projection operators read in
  non local Contribution for L=           1  read in
    real space projection operators read in
  non local Contribution for L=           1  read in
    real space projection operators read in
    PAW grid and wavefunctions read in
 
   number of l-projection  operators is LMAX  =           4
   number of lm-projection operators is LMMAX =           8
 
 Optimization of the real space projectors (new method)

 maximal supplied QI-value         = 16.25
 optimisation between [QCUT,QGAM] = [ 10.73, 21.61] = [ 32.22,130.83] Ry 
 Optimized for a Real-space Cutoff    1.38 Angstroem

   l    n(q)    QCUT    max X(q) W(low)/X(q) W(high)/X(q)  e(spline) 
   2      8    10.726     4.811    0.85E-04    0.11E-04    0.42E-07
   2      8    10.726    15.146    0.35E-03    0.36E-03    0.16E-06
   0      9    10.726    14.357    0.27E-04    0.12E-04    0.41E-08
   0      9    10.726    43.282    0.32E-03    0.20E-03    0.51E-07
   1      8    10.726     5.514    0.41E-04    0.49E-04    0.31E-07
   1      8    10.726     7.697    0.22E-03    0.14E-03    0.16E-06
 Optimization of the real space projectors (new method)

 maximal supplied QI-value         = 15.68
 optimisation between [QCUT,QGAM] = [ 10.82, 21.64] = [ 32.80,131.19] Ry 
 Optimized for a Real-space Cutoff    1.65 Angstroem

   l    n(q)    QCUT    max X(q) W(low)/X(q) W(high)/X(q)  e(spline) 
   0     11    10.822    10.201    0.23E-04    0.55E-05    0.31E-07
   0     11    10.822     8.174    0.35E-04    0.99E-05    0.65E-07
   1     10    10.822     3.488    0.18E-04    0.21E-04    0.55E-07
   1     10    10.822     4.917    0.15E-03    0.13E-03    0.29E-06
   2     10    10.822   153.744    0.28E-03    0.15E-03    0.13E-05
   2     10    10.822   126.342    0.28E-03    0.15E-03    0.13E-05
 Optimization of the real space projectors (new method)

 maximal supplied QI-value         = 13.61
 optimisation between [QCUT,QGAM] = [ 10.75, 21.63] = [ 32.35,131.06] Ry 
 Optimized for a Real-space Cutoff    1.65 Angstroem

   l    n(q)    QCUT    max X(q) W(low)/X(q) W(high)/X(q)  e(spline) 
   2     10    10.749   130.855    0.24E-03    0.22E-03    0.39E-06
   2     10    10.749   114.007    0.24E-03    0.22E-03    0.39E-06
   0     11    10.749    84.709    0.32E-04    0.10E-04    0.34E-06
   0     11    10.749    49.163    0.26E-04    0.89E-05    0.31E-06
   1     10    10.749    15.765    0.14E-03    0.94E-05    0.22E-06
   1     10    10.749    10.638    0.10E-03    0.52E-05    0.16E-06
 Optimization of the real space projectors (new method)

 maximal supplied QI-value         = 19.84
 optimisation between [QCUT,QGAM] = [ 10.71, 21.63] = [ 32.15,130.99] Ry 
 Optimized for a Real-space Cutoff    1.19 Angstroem

   l    n(q)    QCUT    max X(q) W(low)/X(q) W(high)/X(q)  e(spline) 
   0      8    10.715     4.846    0.17E-04    0.92E-05    0.44E-08
   0      8    10.715    64.115    0.37E-03    0.50E-04    0.57E-07
   1      7    10.715     3.092    0.31E-04    0.76E-05    0.15E-07
   1      7    10.715    37.586    0.19E-03    0.58E-03    0.68E-07
 PAW_PBE Ni 06Sep2000                   :
 energy of atom  1       EATOM=-1077.9025
 kinetic energy error for atom=    0.0038 (will be added to EATOM!!)
  PAW_PBE Nb_sv 25May2007               :
 energy of atom  2       EATOM=-1555.1913
 kinetic energy error for atom=    0.0113 (will be added to EATOM!!)
  PAW_PBE W 08Apr2002                   :
 energy of atom  3       EATOM= -204.6103
 kinetic energy error for atom=    0.0022 (will be added to EATOM!!)
  PAW_PBE Cl 17Jan2003                  :
 energy of atom  4       EATOM= -409.7259
 kinetic energy error for atom=    0.0057 (will be added to EATOM!!)
 
 
 POSCAR: Ni Nb  W                                
  positions in direct lattice
  velocities in cartesian coordinates
  No initial velocities read in
 exchange correlation table for  LEXCH =        8
   RHO(1)=    0.500       N(1)  =     2000
   RHO(2)=  100.500       N(2)  =     4000
 


--------------------------------------------------------------------------------------------------------


 ion  position               nearest neighbor table
   1  0.017  0.480  0.240-   6 2.46  31 2.47  44 2.50  16 2.52  68 2.52  35 2.53  69 2.57  10 2.57
                            60 2.65
   2  0.188  0.971  0.247-  64 2.48  24 2.53  65 2.53   3 2.55  13 2.59  66 2.59  14 2.68  58 2.68
                            56 2.71
   3  0.016  0.029  0.176-  14 2.52   4 2.53  62 2.55   2 2.55   5 2.57  64 2.57  49 2.58  72 2.58
                            13 2.59  38 2.59  21 2.64  56 2.66
   4  0.176  0.196  0.175-  10 2.50  13 2.51   3 2.53  61 2.53  31 2.54  72 2.57  49 2.59  42 2.62
                            58 2.62   8 2.67   7 2.67  56 2.75
   5  0.180  0.976  0.103-  72 2.48  30 2.51  29 2.52  42 2.52  18 2.53  13 2.53  50 2.54   3 2.57
                            47 2.57  21 2.57  64 2.59  48 2.62
   6  0.869  0.315  0.238-  10 2.41  54 2.42  31 2.45   1 2.46  49 2.47  51 2.49  56 2.51  16 2.60
                            39 2.77
   7  0.182  0.309  0.097-  22 2.49  10 2.50  70 2.50  37 2.52  45 2.53  28 2.56  20 2.56  61 2.57
                            42 2.57  72 2.61  12 2.62   4 2.67
   8  0.520  0.198  0.173-  61 2.44  51 2.51  39 2.51  49 2.52  38 2.52  13 2.53  12 2.56  42 2.60
                            34 2.61   4 2.67  58 2.70  54 2.75
   9  0.692  0.704  0.025-  32 2.46  43 2.52  63 2.52  15 2.53  19 2.54  41 2.55  57 2.56  59 2.59
                            36 2.67
  10  0.020  0.361  0.168-   6 2.41   4 2.50   7 2.50  28 2.53  31 2.53  69 2.54  22 2.54  35 2.56
                            49 2.57  51 2.57   1 2.57  61 2.62
  11  0.681  0.806  0.244-  23 2.46  66 2.50  24 2.51  44 2.51  62 2.52  14 2.54  65 2.56  17 2.57
                            33 2.59
  12  0.518  0.300  0.097-  34 2.47  42 2.48  40 2.49  71 2.51  20 2.54  61 2.55   8 2.56  67 2.59
                            51 2.60  28 2.61  45 2.61   7 2.62
  13  0.348  0.034  0.173-  66 2.45   4 2.51  42 2.52   8 2.53   5 2.53  64 2.58   3 2.59   2 2.59
                            48 2.60  38 2.60  33 2.63  58 2.73
  14  0.844  0.973  0.246-  39 2.50  65 2.51  56 2.52   3 2.52  66 2.53  11 2.54  62 2.54  38 2.61
                             2 2.68
  15  0.850  0.640  0.096-  41 2.49  19 2.51  43 2.51  35 2.51   9 2.53  53 2.56  17 2.57  22 2.57
                            67 2.58  18 2.58  27 2.60  59 2.66
  16  0.693  0.482  0.239-  44 2.42  54 2.45  25 2.47  35 2.48  23 2.52   1 2.52  51 2.56   6 2.60
                            60 2.62
  17  0.688  0.695  0.170-  44 2.50  23 2.51  35 2.53  43 2.53  62 2.54  27 2.55  33 2.55  25 2.56
                            15 2.57  11 2.57  26 2.60  59 2.63
  18  0.017  0.810  0.101-  53 2.51  27 2.52  29 2.52   5 2.53  43 2.53  21 2.53  47 2.54  19 2.54
                            32 2.57  62 2.58  15 2.58  64 2.62
  19  0.019  0.702  0.028-  53 2.46  47 2.48  15 2.51  32 2.52  18 2.54   9 2.54  41 2.56  36 2.57
                            55 2.61
  20  0.357  0.358  0.025-  45 2.51  70 2.53  12 2.54  71 2.55   7 2.56  40 2.58  55 2.63  37 2.67
                            57 2.76
  21  0.849  0.975  0.100-  72 2.49  32 2.50  34 2.51  43 2.52  62 2.52  46 2.52  50 2.53  18 2.53
                            38 2.53   5 2.57  48 2.59   3 2.64
  22  0.015  0.471  0.096-   7 2.49  69 2.50  37 2.52  55 2.53  35 2.53  10 2.54  28 2.55  41 2.55
                            67 2.57  15 2.57  53 2.61  45 2.64
  23  0.520  0.644  0.241-  26 2.45  11 2.46  24 2.49  17 2.51  16 2.52  60 2.52  44 2.56  25 2.57
                            68 2.59
  24  0.359  0.807  0.248-  23 2.49  66 2.49  11 2.51   2 2.53  68 2.53  64 2.55  26 2.59  33 2.64
                            65 2.72
  25  0.523  0.527  0.169-  16 2.47  51 2.54  17 2.56  35 2.56  23 2.57  61 2.59  26 2.60  60 2.60
                            45 2.61  67 2.62  59 2.67  69 2.67
  26  0.354  0.697  0.173-  23 2.45  33 2.48  64 2.52  68 2.52  24 2.59  29 2.60  25 2.60  69 2.60
                            17 2.60  59 2.61  27 2.63  53 2.68
  27  0.016  0.693  0.171-  44 2.50  35 2.51  69 2.51  18 2.52  17 2.55  53 2.56  68 2.57  64 2.59
                            15 2.60  26 2.63  62 2.66  65 2.71
  28  0.853  0.302  0.098-  72 2.50  34 2.51  10 2.53  71 2.53  52 2.53  49 2.54  37 2.54  51 2.55
                            22 2.55   7 2.56  67 2.57  12 2.61
  29  0.341  0.810  0.099-  47 2.43  63 2.47  59 2.48  53 2.51   5 2.52  18 2.52  33 2.54  48 2.57
                            26 2.60  36 2.60  64 2.62  43 2.73
  30  0.342  0.025  0.031-  47 2.45  48 2.49  50 2.50  40 2.51   5 2.51  63 2.51  42 2.51  70 2.52
                            46 2.64
  31  0.183  0.320  0.242-   6 2.45   1 2.47  60 2.48  61 2.51  10 2.53   4 2.54  58 2.54  56 2.78
                            54 2.95
  32  0.849  0.866  0.029-   9 2.46  43 2.46  46 2.48  50 2.49  21 2.50  19 2.52  63 2.56  18 2.57
                            47 2.62
  33  0.515  0.860  0.170-  66 2.45  26 2.48  48 2.52  62 2.52  29 2.54  64 2.55  17 2.55  43 2.57
                            11 2.59  38 2.61  13 2.63  24 2.64
  34  0.684  0.139  0.099-  12 2.47  40 2.49  46 2.51  28 2.51  21 2.51  38 2.51  48 2.51  52 2.54
                            49 2.55  72 2.58   8 2.61  42 2.62
  35  0.852  0.529  0.167-  16 2.48  27 2.51  15 2.51   1 2.53  17 2.53  22 2.53  69 2.55  51 2.55
                            10 2.56  25 2.56  67 2.59  44 2.60
  36  0.348  0.701  0.023-  47 2.49  59 2.52  63 2.56  19 2.57  53 2.60  29 2.60  55 2.64  57 2.65
                             9 2.67
  37  0.015  0.357  0.025-  22 2.52   7 2.52  70 2.53  28 2.54  52 2.54  71 2.57  55 2.58  41 2.66
                            20 2.67
  38  0.683  0.032  0.171-  66 2.46  39 2.49  49 2.49  62 2.50  34 2.51   8 2.52  48 2.53  21 2.53
                             3 2.59  13 2.60  14 2.61  33 2.61
  39  0.680  0.136  0.244-  56 2.47  38 2.49  14 2.50   8 2.51  66 2.52  54 2.54  49 2.55  58 2.65
                             6 2.77
  40  0.516  0.186  0.028-  46 2.46  34 2.49  12 2.49  30 2.51  71 2.52  42 2.53  70 2.55  20 2.58
                            52 2.65
  41  0.852  0.535  0.024-  15 2.49  57 2.50  55 2.52  67 2.54   9 2.55  22 2.55  19 2.56  37 2.66
                            71 2.76
  42  0.348  0.140  0.100-  12 2.48  30 2.51  70 2.52  13 2.52   5 2.52  40 2.53  48 2.53   7 2.57
                            72 2.59   8 2.60   4 2.62  34 2.62
  43  0.692  0.807  0.098-  63 2.45  32 2.46  15 2.51   9 2.52  21 2.52  18 2.53  59 2.53  17 2.53
                            62 2.53  33 2.57  48 2.60  29 2.73
  44  0.849  0.642  0.241-  16 2.42  27 2.50  17 2.50   1 2.50  11 2.51  65 2.54  23 2.56  35 2.60
                            68 2.63
  45  0.354  0.473  0.095-  20 2.51   7 2.53  69 2.54  55 2.56  67 2.58  59 2.60  25 2.61  12 2.61
                            53 2.63  22 2.64  61 2.65  57 2.97
  46  0.681  0.026  0.029-  63 2.45  40 2.46  32 2.48  34 2.51  48 2.51  52 2.52  21 2.52  30 2.64
                            50 2.64
  47  0.185  0.863  0.030-  29 2.43  30 2.45  19 2.48  50 2.48  36 2.49  18 2.54   5 2.57  63 2.61
                            32 2.62
  48  0.516  0.976  0.100-  63 2.43  30 2.49  46 2.51  34 2.51  33 2.52  42 2.53  38 2.53  29 2.57
                            21 2.59  13 2.60  43 2.60   5 2.62
  49  0.844  0.196  0.172-  51 2.47   6 2.47  38 2.49   8 2.52  28 2.54  72 2.54  34 2.55  39 2.55
                            10 2.57   3 2.58   4 2.59  56 2.71
  50  0.021  0.025  0.029-  47 2.48  52 2.49  32 2.49  30 2.50  21 2.53   5 2.54  72 2.55  70 2.57
                            46 2.64
  51  0.689  0.360  0.170-  49 2.47   6 2.49   8 2.51  25 2.54  28 2.55  35 2.55  16 2.56  10 2.57
                            61 2.59  12 2.60  67 2.61  54 2.62
  52  0.856  0.188  0.027-  50 2.49  71 2.51  46 2.52  28 2.53  34 2.54  37 2.54  72 2.56  70 2.59
                            40 2.65
  53  0.178  0.645  0.096-  19 2.46  69 2.49  18 2.51  29 2.51  15 2.56  59 2.56  27 2.56  55 2.59
                            36 2.60  22 2.61  45 2.63  26 2.68
  54  0.561  0.315  0.252-   6 2.42  16 2.45  39 2.54  51 2.62  60 2.68  58 2.73   8 2.75  61 2.89
                            31 2.95
  55  0.177  0.528  0.024-  41 2.52  22 2.53  45 2.56  37 2.58  53 2.59  19 2.61  20 2.63  36 2.64
                            57 2.83
  56  0.995  0.142  0.253-  39 2.47  73 2.49   6 2.51  14 2.52   3 2.66  58 2.70  49 2.71   2 2.71
                             4 2.75  31 2.78
  57  0.537  0.535  0.009-  41 2.50   9 2.56  36 2.65  71 2.75  20 2.76  55 2.83  67 2.84  59 2.91
                            45 2.97
  58  0.342  0.153  0.251-  31 2.54  73 2.54   4 2.62  39 2.65   2 2.68   8 2.70  56 2.70  54 2.73
                            13 2.73  66 2.80
  59  0.508  0.649  0.095-  29 2.48  36 2.52  43 2.53  53 2.56   9 2.59  45 2.60  26 2.61  17 2.63
                            15 2.66  25 2.67  67 2.72  57 2.91
  60  0.357  0.479  0.245-  31 2.48  23 2.52  68 2.53  25 2.60  74 2.61  16 2.62   1 2.65  54 2.68
                            61 2.69  69 2.75
  61  0.356  0.356  0.170-   8 2.44  31 2.51   4 2.53  12 2.55   7 2.57  51 2.59  25 2.59  10 2.62
                            45 2.65  69 2.65  60 2.69  54 2.89
  62  0.839  0.866  0.172-  38 2.50  11 2.52  21 2.52  33 2.52  43 2.53  17 2.54  14 2.54   3 2.55
                            18 2.58  27 2.66  65 2.68  64 2.72  66 3.41
  63  0.520  0.865  0.032-  48 2.43  43 2.45  46 2.45  29 2.47  30 2.51   9 2.52  36 2.56  32 2.56
                            47 2.61
  64  0.188  0.862  0.176-   2 2.48  26 2.52  33 2.55  24 2.55   3 2.57  13 2.58  27 2.59   5 2.59
                            65 2.60  29 2.62  18 2.62  62 2.72  66 3.45  68 3.47
  65  0.010  0.809  0.249-  14 2.51   2 2.53  44 2.54  11 2.56  68 2.59  64 2.60  62 2.68  27 2.71
                            24 2.72
  66  0.520  0.970  0.239-  33 2.45  13 2.45  38 2.46  24 2.49  11 2.50  39 2.52  14 2.53   2 2.59
                            58 2.80  62 3.41  64 3.45
  67  0.685  0.470  0.094-  71 2.52  41 2.54  22 2.57  28 2.57  45 2.58  15 2.58  12 2.59  35 2.59
                            51 2.61  25 2.62  59 2.72  57 2.84
  68  0.187  0.643  0.244-  26 2.52   1 2.52  24 2.53  60 2.53  74 2.56  27 2.57  65 2.59  23 2.59
                            44 2.63  69 2.72  64 3.47
  69  0.180  0.529  0.165-  53 2.49  22 2.50  27 2.51  10 2.54  45 2.54  35 2.55   1 2.57  26 2.60
                            61 2.65  25 2.67  68 2.72  60 2.75
  70  0.189  0.194  0.028-   7 2.50  42 2.52  30 2.52  20 2.53  37 2.53  40 2.55  50 2.57  52 2.59
                            72 2.61
  71  0.684  0.349  0.026-  52 2.51  12 2.51  40 2.52  67 2.52  28 2.53  20 2.55  37 2.57  57 2.75
                            41 2.76
  72  0.015  0.137  0.101-   5 2.48  21 2.49  28 2.50  49 2.54  50 2.55  52 2.56   4 2.57  34 2.58
                             3 2.58  42 2.59   7 2.61  70 2.61
  73  0.167  0.151  0.326-  56 2.49  58 2.54
  74  0.242  0.557  0.322-  68 2.56  60 2.61
 
  LATTYP: Found a simple orthorhombic cell.
 ALAT       =     7.7784981728
 B/A-ratio  =     1.6889770438
 C/A-ratio  =     3.6971751997
  
  Lattice vectors:
  
 A1 = (   7.7784981728,   0.0000000000,   0.0000000000)
 A2 = (   0.0000000000,  13.1377048492,   0.0000000000)
 A3 = (   0.0000000000,   0.0000000000,  28.7584705353)


Analysis of symmetry for initial positions (statically):
=====================================================================
 Subroutine PRICEL returns:
 Original cell was already a primitive cell.
 

 Routine SETGRP: Setting up the symmetry group for a 
 simple orthorhombic supercell.


 Subroutine GETGRP returns: Found  1 space group operations
 (whereof  1 operations were pure point group operations)
 out of a pool of  8 trial point group operations.


The static configuration has the point symmetry C_1 .


Analysis of symmetry for dynamics (positions and initial velocities):
=====================================================================
 Subroutine PRICEL returns:
 Original cell was already a primitive cell.
 

 Routine SETGRP: Setting up the symmetry group for a 
 simple orthorhombic supercell.


 Subroutine GETGRP returns: Found  1 space group operations
 (whereof  1 operations were pure point group operations)
 out of a pool of  8 trial point group operations.


The dynamic configuration has the point symmetry C_1 .


Analysis of constrained symmetry for selective dynamics:
=====================================================================
 Subroutine PRICEL returns:
 Original cell was already a primitive cell.
 

 Routine SETGRP: Setting up the symmetry group for a 
 simple orthorhombic supercell.


 Subroutine GETGRP returns: Found  1 space group operations
 (whereof  1 operations were pure point group operations)
 out of a pool of  8 trial point group operations.


The constrained configuration has the point symmetry C_1 .


Analysis of structural, dynamic, and magnetic symmetry:
=====================================================================
 Subroutine PRICEL returns:
 Original cell was already a primitive cell.
 

 Routine SETGRP: Setting up the symmetry group for a 
 simple orthorhombic supercell.


 Subroutine GETGRP returns: Found  1 space group operations
 (whereof  1 operations were pure point group operations)
 out of a pool of  8 trial point group operations.


The magnetic configuration has the point symmetry C_1 .


 Subroutine INISYM returns: Found  1 space group operations
 (whereof  1 operations are pure point group operations),
 and found     1 'primitive' translations

 
 
 KPOINTS: k-points                                

Automatic generation of k-mesh.
Space group operators:
 irot       det(A)        alpha          n_x          n_y          n_z        tau_x        tau_y        tau_z
    1     1.000000     0.000000     1.000000     0.000000     0.000000     0.000000     0.000000     0.000000
 
 Subroutine IBZKPT returns following result:
 ===========================================
 
 Found      2 irreducible k-points:
 
 Following reciprocal coordinates:
            Coordinates               Weight
  0.250000  0.250000  0.000000      2.000000
 -0.250000  0.250000  0.000000      2.000000
 
 Following cartesian coordinates:
            Coordinates               Weight
  0.032140  0.019029  0.000000      2.000000
 -0.032140  0.019029  0.000000      2.000000
 


--------------------------------------------------------------------------------------------------------




 Dimension of arrays:
   k-points           NKPTS =      2   k-points in BZ     NKDIM =      2   number of bands    NBANDS=    460
   number of dos      NEDOS =    301   number of ions     NIONS =     74
   non local maximal  LDIM  =      6   non local SUM 2l+1 LMDIM =     18
   total plane-waves  NPLWV = 420000
   max r-space proj   IRMAX =   2733   max aug-charges    IRDMAX=   8356
   dimension x,y,z NGX =    40 NGY =   70 NGZ =  150
   dimension x,y,z NGXF=    80 NGYF=  140 NGZF=  300
   support grid    NGXF=    80 NGYF=  140 NGZF=  300
   ions per type =              53   6  13   2
 NGX,Y,Z   is equivalent  to a cutoff of   8.55,  8.86,  8.67 a.u.
 NGXF,Y,Z  is equivalent  to a cutoff of  17.10, 17.72, 17.34 a.u.


 I would recommend the setting:
   dimension x,y,z NGX =    40 NGY =   68 NGZ =  149
 SYSTEM =  clean (100) surface                     
 POSCAR =  Ni Nb  W                                

 Startparameter for this run:
   NWRITE =      2    write-flag & timer
   PREC   = normal    normal or accurate (medium, high low for compatibility)
   ISTART =      0    job   : 0-new  1-cont  2-samecut
   ICHARG =      2    charge: 1-file 2-atom 10-const
   ISPIN  =      2    spin polarized calculation?
   LNONCOLLINEAR =      F non collinear calculations
   LSORBIT =      F    spin-orbit coupling
   INIWAV =      1    electr: 0-lowe 1-rand  2-diag
   LASPH  =      F    aspherical Exc in radial PAW
   METAGGA=      F    non-selfconsistent MetaGGA calc.

 Electronic Relaxation 1
   ENCUT  =  450.0 eV  33.07 Ry    5.75 a.u.  13.45 22.72 49.74*2*pi/ulx,y,z
   ENINI  =  450.0     initial cutoff
   ENAUG  =  544.6 eV  augmentation charge cutoff
   NELM   =     60;   NELMIN=  2; NELMDL= -5     # of ELM steps 
   EDIFF  = 0.1E-05   stopping-criterion for ELM
   LREAL  =      T    real-space projection
   NLSPLINE    = F    spline interpolate recip. space projectors
   LCOMPAT=      F    compatible to vasp.4.4
   GGA_COMPAT  = T    GGA compatible to vasp.4.4-vasp.4.6
   LMAXPAW     = -100 max onsite density
   LMAXMIX     =    2 max onsite mixed and CHGCAR
   VOSKOWN=      0    Vosko Wilk Nusair interpolation
   ROPT   =   -0.00050  -0.00050  -0.00050  -0.00050
 Ionic relaxation
   EDIFFG = -.1E-01   stopping-criterion for IOM
   NSW    =    250    number of steps for IOM
   NBLOCK =      1;   KBLOCK =    250    inner block; outer block 
   IBRION =      2    ionic relax: 0-MD 1-quasi-New 2-CG
   NFREE  =      1    steps in history (QN), initial steepest desc. (CG)
   ISIF   =      2    stress and relaxation
   IWAVPR =     11    prediction:  0-non 1-charg 2-wave 3-comb
   ISYM   =      2    0-nonsym 1-usesym 2-fastsym
   LCORR  =      T    Harris-Foulkes like correction to forces

   POTIM  = 0.1000    time-step for ionic-motion
   TEIN   =    0.0    initial temperature
   TEBEG  =    0.0;   TEEND  =   0.0 temperature during run
   SMASS  =  -3.00    Nose mass-parameter (am)
   estimated Nose-frequenzy (Omega)   =  0.10E-29 period in steps =****** mass=  -0.138E-26a.u.
   SCALEE = 1.0000    scale energy and forces
   NPACO  =    256;   APACO  = 16.0  distance and # of slots for P.C.
   PSTRESS=    0.0 pullay stress

  Mass of Ions in am
   POMASS =  58.69 92.91183.85 35.45
  Ionic Valenz
   ZVAL   =  10.00 13.00  6.00  7.00
  Atomic Wigner-Seitz radii
   RWIGS  =  -1.00 -1.00 -1.00 -1.00
  virtual crystal weights 
   VCA    =   1.00  1.00  1.00  1.00
   NELECT =     700.0000    total number of electrons
   NUPDOWN=      -1.0000    fix difference up-down

 DOS related values:
   EMIN   =  10.00;   EMAX   =-10.00  energy-range for DOS
   EFERMI =   0.00
   ISMEAR =     2;   SIGMA  =   0.20  broadening in eV -4-tet -1-fermi 0-gaus

 Electronic relaxation 2 (details)
   IALGO  =     68    algorithm
   LDIAG  =      T    sub-space diagonalisation (order eigenvalues)
   LSUBROT=      F    optimize rotation matrix (better conditioning)
   TURBO    =      0    0=normal 1=particle mesh
   IRESTART =      0    0=no restart 2=restart with 2 vectors
   NREBOOT  =      0    no. of reboots
   NMIN     =      0    reboot dimension
   EREF     =   0.00    reference energy to select bands
   IMIX   =      4    mixing-type and parameters
     AMIX     =   0.40;   BMIX     =  1.00
     AMIX_MAG =   1.60;   BMIX_MAG =  1.00
     AMIN     =   0.10
     WC   =   100.;   INIMIX=   1;  MIXPRE=   1;  MAXMIX= -45

 Intra band minimization:
   WEIMIN = 0.0010     energy-eigenvalue tresh-hold
   EBREAK =  0.54E-09  absolut break condition
   DEPER  =   0.30     relativ break condition  

   TIME   =   0.40     timestep for ELM

  volume/ion in A,a.u.               =      39.71       268.01
  Fermi-wavevector in a.u.,A,eV,Ry     =   1.014800  1.917694 14.011541  1.029819
  Thomas-Fermi vector in A             =   2.148049
 
 Write flags
   LWAVE  =      F    write WAVECAR
   LCHARG =      F    write CHGCAR
   LVTOT  =      F    write LOCPOT, total local potential
   LVHAR  =      F    write LOCPOT, Hartree potential only
   LELF   =      F    write electronic localiz. function (ELF)
   LORBIT =      0    0 simple, 1 ext, 2 COOP (PROOUT)


 Dipole corrections
   LMONO  =      F    monopole corrections only (constant potential shift)
   LDIPOL =      F    correct potential (dipole corrections)
   IDIPOL =      0    1-x, 2-y, 3-z, 4-all directions 
   EPSILON=  1.0000000 bulk dielectric constant

 Exchange correlation treatment:
   GGA     =    --    GGA type
   LEXCH   =     8    internal setting for exchange type
   VOSKOWN=      0    Vosko Wilk Nusair interpolation
   LHFCALC =     F    Hartree Fock is set to
   LHFONE  =     F    Hartree Fock one center treatment
   AEXX    =    0.0000 exact exchange contribution

 Linear response parameters
   LEPSILON=     F    determine dielectric tensor
   LRPA    =     F    only Hartree local field effects (RPA)
   LNABLA  =     F    use nabla operator in PAW spheres
   LVEL    =     F    velocity operator in full k-point grid
   LINTERFAST=   F  fast interpolation
   KINTER  =     0    interpolate to denser k-point grid
   CSHIFT  =0.1000    complex shift for real part using Kramers Kronig
   OMEGAMAX=  -1.0    maximum frequency
   DEG_THRESHOLD= 0.2000000E-02 threshold for treating states as degnerate
   RTIME   =    0.100 relaxation time in fs

 Orbital magnetization related:
   ORBITALMAG=     F  switch on orbital magnetization
   LCHIMAG   =     F  perturbation theory with respect to B field
   DQ        =  0.001000  dq finite difference perturbation B field



--------------------------------------------------------------------------------------------------------


 conjugate gradient relaxation of ions
   using selective dynamics as specified on POSCAR
 charge density and potential will be updated during run
 spin polarized calculation
 RMM-DIIS sequential band-by-band and
  variant of blocked Davidson during initial phase
 perform sub-space diagonalisation
    before iterative eigenvector-optimisation
 modified Broyden-mixing scheme, WC =      100.0
 initial mixing is a Kerker type mixing with AMIX =  0.4000 and BMIX =      1.0000
 Hartree-type preconditioning will be used
 using additional bands          110
 real space projection scheme for non local part
 use partial core corrections
 calculate Harris-corrections to forces 
   (improved forces if not selfconsistent)
 use gradient corrections 
 use of overlap-Matrix (Vanderbilt PP)
 Methfessel and Paxton  Order N= 2 SIGMA  =   0.20


--------------------------------------------------------------------------------------------------------


  energy-cutoff  :      450.00
  volume of cell :     2938.87
      direct lattice vectors                 reciprocal lattice vectors
     7.778498173  0.000000000  0.000000000     0.128559521  0.000000000  0.000000000
     0.000000000 13.137704849  0.000000000     0.000000000  0.076116796  0.000000000
     0.000000000  0.000000000 28.758470535     0.000000000  0.000000000  0.034772364

  length of vectors
     7.778498173 13.137704849 28.758470535     0.128559521  0.076116796  0.034772364


 
 k-points in units of 2pi/SCALE and weight: k-points                                
   0.03213988  0.01902920  0.00000000       0.500
  -0.03213988  0.01902920  0.00000000       0.500
 
 k-points in reciprocal lattice and weights: k-points                                
   0.25000000  0.25000000  0.00000000       0.500
  -0.25000000  0.25000000  0.00000000       0.500
 
 position of ions in fractional coordinates (direct lattice) 
   0.01677874  0.48028891  0.23954171
   0.18820179  0.97054280  0.24685784
   0.01574459  0.02903905  0.17629135
   0.17649377  0.19608488  0.17451447
   0.18015205  0.97593545  0.10274937
   0.86893976  0.31452601  0.23834747
   0.18185604  0.30932552  0.09726507
   0.51983291  0.19771132  0.17324775
   0.69174629  0.70353079  0.02474701
   0.01981753  0.36131998  0.16839133
   0.68110895  0.80569113  0.24361912
   0.51774710  0.29964626  0.09743019
   0.34813567  0.03396624  0.17342784
   0.84396355  0.97279193  0.24610250
   0.84975159  0.64034343  0.09611478
   0.69331140  0.48248299  0.23896314
   0.68849218  0.69499942  0.16989713
   0.01706562  0.80960392  0.10122276
   0.01854145  0.70249915  0.02756251
   0.35722980  0.35799846  0.02523561
   0.84945476  0.97503240  0.09999980
   0.01473417  0.47088006  0.09566164
   0.52042141  0.64425825  0.24079852
   0.35864406  0.80695387  0.24779236
   0.52282944  0.52697314  0.16943865
   0.35395744  0.69743397  0.17287151
   0.01625573  0.69330878  0.17080726
   0.85340101  0.30194870  0.09793551
   0.34136507  0.80951512  0.09855519
   0.34221569  0.02505720  0.03075818
   0.18347412  0.32048854  0.24204530
   0.84868544  0.86561239  0.02883669
   0.51473245  0.85988790  0.16976986
   0.68406248  0.13931978  0.09872251
   0.85224271  0.52896216  0.16717820
   0.34826052  0.70073599  0.02297433
   0.01460779  0.35665453  0.02537953
   0.68281595  0.03209589  0.17112052
   0.68001930  0.13595983  0.24369676
   0.51575571  0.18565848  0.02818314
   0.85233480  0.53454304  0.02420950
   0.34758893  0.14039043  0.10047844
   0.69231445  0.80715913  0.09830730
   0.84899856  0.64228343  0.24112725
   0.35363471  0.47321785  0.09489550
   0.68127644  0.02587022  0.02861967
   0.18514094  0.86345625  0.02970118
   0.51638256  0.97575787  0.10001558
   0.84355951  0.19639710  0.17180426
   0.02116681  0.02542408  0.02909101
   0.68895207  0.36031863  0.16981073
   0.85591453  0.18764234  0.02693425
   0.17837599  0.64452368  0.09640931
   0.56134826  0.31537517  0.25167319
   0.17667772  0.52758628  0.02393096
   0.99518547  0.14188959  0.25280766
   0.53659064  0.53547454  0.00882442
   0.34235346  0.15282676  0.25137611
   0.50784022  0.64876383  0.09540285
   0.35688919  0.47873863  0.24487453
   0.35604882  0.35612617  0.16992368
   0.83886060  0.86618166  0.17223811
   0.52003181  0.86542088  0.03216955
   0.18784221  0.86175404  0.17624557
   0.00964468  0.80938376  0.24884207
   0.51960208  0.96965077  0.23860950
   0.68470490  0.47014680  0.09402694
   0.18749694  0.64340585  0.24391425
   0.18044138  0.52910314  0.16521986
   0.18877402  0.19379635  0.02819043
   0.68436050  0.34922993  0.02600386
   0.01505429  0.13731945  0.10149613
   0.16675764  0.15101650  0.32594959
   0.24162000  0.55694000  0.32242000
 
 position of ions in cartesian coordinates  (Angst):
   0.13051343  6.30989397  6.88885318
   1.46392729 12.75070481  7.09925378
   0.12246928  0.38150652  5.06986970
   1.37285650  2.57610527  5.01876938
   1.40131236 12.82155188  2.95491475
   6.75904635  4.13214986  6.85450880
   1.41456684  4.06382733  2.79719471
   4.04351935  2.59747295  4.98234024
   5.38074728  9.24277985  0.71168616
   0.15415063  4.74691530  4.84267723
   5.29800475 10.58493225  7.00611338
   4.02729490  3.93666410  2.80194331
   2.70797264  0.44623849  4.98751941
   6.56476892 12.78025321  7.07753146
   6.60979121  8.41264296  2.76411398
   5.39292143  6.33871912  6.87221436
   5.35543513  9.13069727  4.88598175
   0.13274488 10.63633740  2.91101179
   0.14422466  9.22922650  0.79265557
   2.77871134  4.70327812  0.72573760
   6.60748229 12.80968785  2.87584144
   0.11460971  6.18628326  2.75108246
   4.04809700  8.46407478  6.92499710
   2.78971217 10.60152171  7.12612942
   4.06682782  6.92321764  4.87279633
   2.75325732  9.16268161  4.97152019
   0.12644517  9.10848618  4.91215550
   6.63817816  3.96691285  2.81647533
   2.65530757 10.63517070  2.83429638
   2.66192410  0.32919415  0.88455827
   1.42715307  4.21048391  6.96085254
   6.60149817 11.37216007  0.82929898
   4.00384542 11.29695337  4.88232149
   5.32097876  1.83034211  2.83910840
   6.62916837  6.94934868  4.80778936
   2.70894383  9.20606256  0.66070651
   0.11362668  4.68562188  0.72987655
   5.31128261  0.42166630  4.92116441
   5.28952885  1.78620012  7.00834603
   4.01180487  2.43912638  0.81050394
   6.62988466  7.02266865  0.69622822
   2.70371985  1.84440807  2.88960634
   5.38516665 10.60421836  2.82716771
   6.60393377  8.43813008  6.93445087
   2.75074698  6.21699638  2.72904956
   5.29930755  0.33987533  0.82305802
   1.44011845 11.34383335  0.85416062
   4.01668081 12.81921893  2.87629503
   6.56162608  2.58020720  4.94082775
   0.16464597  0.33401409  0.83661310
   5.35901243  4.73375985  4.88349682
   6.65772963  2.46518963  0.77458786
   1.38749730  8.46756188  2.77258419
   4.36644642  4.14330586  7.23773606
   1.37428731  6.93127284  0.68821769
   7.74104837  1.86410357  7.27036153
   4.17386928  7.03490645  0.25377674
   2.66299574  2.00779286  7.22919232
   3.95023419  8.52326778  2.74364011
   2.77606188  6.28952688  7.04221709
   2.76952508  4.67868048  4.88674510
   6.52507565 11.37963899  4.95330452
   4.04506648 11.36964407  0.92514697
   1.46113031 11.32147017  5.06855317
   0.07502109 10.63344491  7.15631743
   4.04172387 12.73898556  6.86204424
   5.32597581  6.17664996  2.70407093
   1.45844462  8.45287610  7.01460078
   1.40356294  6.95120087  4.75147043
   1.46837836  2.54603927  0.81071371
   5.32329693  4.58807977  0.74783136
   0.11709976  1.80406240  2.91887335
   1.29712403  1.98401022  9.37381158
   1.87944073  7.31691334  9.27230607
 


--------------------------------------------------------------------------------------------------------


 k-point  1 :   0.2500 0.2500 0.0000  plane waves:   63698
 k-point  2 :  -0.2500 0.2500 0.0000  plane waves:   63698

 maximum and minimum number of plane-waves per node :      2658     2651

 maximum number of plane-waves:     63698
 maximum index in each direction: 
   IXMAX=   13   IYMAX=   22   IZMAX=   49
   IXMIN=  -13   IYMIN=  -22   IZMIN=  -49

 WARNING: aliasing errors must be expected set NGX to  54 to avoid them
 WARNING: aliasing errors must be expected set NGY to  90 to avoid them
 WARNING: aliasing errors must be expected set NGZ to 198 to avoid them
 aliasing errors are usually negligible using standard VASP settings
 and one can safely disregard these warnings

 real space projection operators:
  total allocation   :      18461.45 KBytes
  max/ min on nodes  :        948.89        424.41


 parallel 3D FFT for wavefunctions:
    minimum data exchange during FFTs selected (reduces bandwidth)
 parallel 3D FFT for charge:
    minimum data exchange during FFTs selected (reduces bandwidth)


 total amount of memory used by VASP on root node    62473. kBytes
========================================================================

   base      :      30000. kBytes
   nonlr-proj:       4535. kBytes
   fftplans  :       2057. kBytes
   grid      :       5738. kBytes
   one-center:        124. kBytes
   wavefun   :      20019. kBytes
 
     INWAV:  cpu time    0.0000: real time    0.0000
 Broyden mixing: mesh for mixing (old mesh)
   NGX = 27   NGY = 45   NGZ = 99
  (NGX  = 80   NGY  =140   NGZ  =300)
  gives a total of 120285 points

 initial charge density was supplied:
 charge density of overlapping atoms calculated
 number of electron     700.0000000 magnetization      74.0000000
 keeping initial charge density in first step


--------------------------------------------------------------------------------------------------------


 Maximum index for non-local projection operator          235
 Maximum index for augmentation-charges          484 (set IRDMAX)


--------------------------------------------------------------------------------------------------------


 First call to EWALD:  gamma=   0.124
 Maximum number of real-space cells 5x 3x 2
 Maximum number of reciprocal cells 2x 3x 5

 FEWALD executed in parallel
    FEWALD:  cpu time    0.0035: real time    0.0035


----------------------------------------- Iteration    1(   1)  ---------------------------------------


    POTLOK:  cpu time    0.0666: real time    0.0727
    SETDIJ:  cpu time    0.0136: real time    0.0167
     EDDAV:  cpu time    5.5095: real time    5.5434
       DOS:  cpu time    0.0015: real time    0.0015
    --------------------------------------------
      LOOP:  cpu time    5.5953: real time    5.6462

 eigenvalue-minimisations  :  3728
 total energy-change (2. order) : 0.5784657E+04  (-0.2758985E+05)
 number of electron     700.0000000 magnetization      74.0000000
 augmentation part      700.0000000 magnetization      74.0000000

 Free energy of the ion-electron system (eV)
  ---------------------------------------------------
  alpha Z        PSCENC =      1827.06138947
  Ewald energy   TEWEN  =    455978.91936086
  -Hartree energ DENC   =   -522665.65553165
  -exchange      EXHF   =         0.00000000
  -V(xc)+E(xc)   XCENC  =      1428.18270464
  PAW double counting   =     57079.67971410   -59737.57221388
  entropy T*S    EENTRO =         0.00502083
  eigenvalues    EBANDS =      1934.98075073
  atomic energy  EATOM  =     69939.05554655
  Solvation  Ediel_sol  =         0.00000000
  ---------------------------------------------------
  free energy    TOTEN  =      5784.65674166 eV

  energy without entropy =     5784.65172083  energy(sigma->0) =     5784.65548646


--------------------------------------------------------------------------------------------------------




----------------------------------------- Iteration    1(   2)  ---------------------------------------


     EDDAV:  cpu time    5.3528: real time    5.3528
       DOS:  cpu time    0.0023: real time    0.0023
    --------------------------------------------
      LOOP:  cpu time    5.3572: real time    5.3588

 eigenvalue-minimisations  :  3696
 total energy-change (2. order) :-0.5589872E+04  (-0.5313033E+04)
 number of electron     700.0000000 magnetization      74.0000000
 augmentation part      700.0000000 magnetization      74.0000000

 Free energy of the ion-electron system (eV)
  ---------------------------------------------------
  alpha Z        PSCENC =      1827.06138947
  Ewald energy   TEWEN  =    455978.91936086
  -Hartree energ DENC   =   -522665.65553165
  -exchange      EXHF   =         0.00000000
  -V(xc)+E(xc)   XCENC  =      1428.18270464
  PAW double counting   =     57079.67971410   -59737.57221388
  entropy T*S    EENTRO =        -0.00564769
  eigenvalues    EBANDS =     -3654.88101713
  atomic energy  EATOM  =     69939.05554655
  Solvation  Ediel_sol  =         0.00000000
  ---------------------------------------------------
  free energy    TOTEN  =       194.78430528 eV

  energy without entropy =      194.78995297  energy(sigma->0) =      194.78571720


--------------------------------------------------------------------------------------------------------




----------------------------------------- Iteration    1(   3)  ---------------------------------------


     EDDAV:  cpu time    6.0008: real time    6.0019
       DOS:  cpu time    0.0025: real time    0.0025
    --------------------------------------------
      LOOP:  cpu time    6.0069: real time    6.0099

 eigenvalue-minimisations  :  4280
 total energy-change (2. order) :-0.6683580E+03  (-0.6087401E+03)
 number of electron     700.0000000 magnetization      74.0000000
 augmentation part      700.0000000 magnetization      74.0000000

 Free energy of the ion-electron system (eV)
  ---------------------------------------------------
  alpha Z        PSCENC =      1827.06138947
  Ewald energy   TEWEN  =    455978.91936086
  -Hartree energ DENC   =   -522665.65553165
  -exchange      EXHF   =         0.00000000
  -V(xc)+E(xc)   XCENC  =      1428.18270464
  PAW double counting   =     57079.67971410   -59737.57221388
  entropy T*S    EENTRO =         0.00452726
  eigenvalues    EBANDS =     -4323.24922044
  atomic energy  EATOM  =     69939.05554655
  Solvation  Ediel_sol  =         0.00000000
  ---------------------------------------------------
  free energy    TOTEN  =      -473.57372309 eV

  energy without entropy =     -473.57825034  energy(sigma->0) =     -473.57485490


--------------------------------------------------------------------------------------------------------




----------------------------------------- Iteration    1(   4)  ---------------------------------------


     EDDAV:  cpu time    7.2051: real time    7.2051
       DOS:  cpu time    0.0017: real time    0.0017
    --------------------------------------------
      LOOP:  cpu time    7.2109: real time    7.2127

 eigenvalue-minimisations  :  5392
 total energy-change (2. order) :-0.9056045E+02  (-0.8317188E+02)
 number of electron     700.0000000 magnetization      74.0000000
 augmentation part      700.0000000 magnetization      74.0000000

 Free energy of the ion-electron system (eV)
  ---------------------------------------------------
  alpha Z        PSCENC =      1827.06138947
  Ewald energy   TEWEN  =    455978.91936086
  -Hartree energ DENC   =   -522665.65553165
  -exchange      EXHF   =         0.00000000
  -V(xc)+E(xc)   XCENC  =      1428.18270464
  PAW double counting   =     57079.67971410   -59737.57221388
  entropy T*S    EENTRO =         0.03783896
  eigenvalues    EBANDS =     -4413.84297787
  atomic energy  EATOM  =     69939.05554655
  Solvation  Ediel_sol  =         0.00000000
  ---------------------------------------------------
  free energy    TOTEN  =      -564.13416881 eV

  energy without entropy =     -564.17200777  energy(sigma->0) =     -564.14362855


--------------------------------------------------------------------------------------------------------




----------------------------------------- Iteration    1(   5)  ---------------------------------------


     EDDAV:  cpu time    8.0811: real time    8.0811
       DOS:  cpu time    0.0022: real time    0.0022
    CHARGE:  cpu time    0.1686: real time    0.1704
    MIXING:  cpu time    0.0041: real time    0.0056
    --------------------------------------------
      LOOP:  cpu time    8.2583: real time    8.2635

 eigenvalue-minimisations  :  6208
 total energy-change (2. order) :-0.9369703E+01  (-0.9184757E+01)
 number of electron     699.9999977 magnetization      71.4612925
 augmentation part      304.0887782 magnetization      61.4011688

 Broyden mixing:
  rms(total) = 0.10385E+02    rms(broyden)= 0.10384E+02
  rms(prec ) = 0.10641E+02
  weight for this iteration     100.00

 Free energy of the ion-electron system (eV)
  ---------------------------------------------------
  alpha Z        PSCENC =      1827.06138947
  Ewald energy   TEWEN  =    455978.91936086
  -Hartree energ DENC   =   -522665.65553165
  -exchange      EXHF   =         0.00000000
  -V(xc)+E(xc)   XCENC  =      1428.18270464
  PAW double counting   =     57079.67971410   -59737.57221388
  entropy T*S    EENTRO =         0.03929347
  eigenvalues    EBANDS =     -4423.21413565
  atomic energy  EATOM  =     69939.05554655
  Solvation  Ediel_sol  =         0.00000000
  ---------------------------------------------------
  free energy    TOTEN  =      -573.50387208 eV

  energy without entropy =     -573.54316555  energy(sigma->0) =     -573.51369545


--------------------------------------------------------------------------------------------------------




----------------------------------------- Iteration    1(   6)  ---------------------------------------


    POTLOK:  cpu time    0.0557: real time    0.0557
    SETDIJ:  cpu time    0.0083: real time    0.0083
    EDDIAG:  cpu time    0.8614: real time    0.8626
  RMM-DIIS:  cpu time    2.2093: real time    2.2097
    ORTHCH:  cpu time    0.2835: real time    0.2835
       DOS:  cpu time    0.0016: real time    0.0016
    CHARGE:  cpu time    0.1645: real time    0.1645
    MIXING:  cpu time    0.0031: real time    0.0061
    --------------------------------------------
      LOOP:  cpu time    3.5889: real time    3.5956

 eigenvalue-minimisations  :  3918
 total energy-change (2. order) :-0.1743897E+03  (-0.1230477E+03)
 number of electron     699.9999962 magnetization      69.4972945
 augmentation part      390.8057727 magnetization      59.9357339

 Broyden mixing:
  rms(total) = 0.10846E+02    rms(broyden)= 0.10846E+02
  rms(prec ) = 0.12115E+02
  weight for this iteration     100.00

 eigenvalues of (default mixing * dielectric matrix)
  average eigenvalue GAMMA=   0.4584
  0.4584

 Free energy of the ion-electron system (eV)
  ---------------------------------------------------
  alpha Z        PSCENC =      1827.06138947
  Ewald energy   TEWEN  =    455978.91936086
  -Hartree energ DENC   =   -521091.78796048
  -exchange      EXHF   =         0.00000000
  -V(xc)+E(xc)   XCENC  =      1353.60979480
  PAW double counting   =     59672.48478835   -62022.16308436
  entropy T*S    EENTRO =         0.01338275
  eigenvalues    EBANDS =     -6405.08678588
  atomic energy  EATOM  =     69939.05554655
  Solvation  Ediel_sol  =         0.00000000
  ---------------------------------------------------
  free energy    TOTEN  =      -747.89356793 eV

  energy without entropy =     -747.90695067  energy(sigma->0) =     -747.89691361


--------------------------------------------------------------------------------------------------------




----------------------------------------- Iteration    1(   7)  ---------------------------------------


    POTLOK:  cpu time    0.0547: real time    0.0547
    SETDIJ:  cpu time    0.0080: real time    0.0080
    EDDIAG:  cpu time    0.8596: real time    0.8596
  RMM-DIIS:  cpu time    2.1043: real time    2.1043
    ORTHCH:  cpu time    0.2819: real time    0.2819
       DOS:  cpu time    0.0017: real time    0.0017
    CHARGE:  cpu time    0.1661: real time    0.1661
    MIXING:  cpu time    0.0017: real time    0.0021
    --------------------------------------------
      LOOP:  cpu time    3.4794: real time    3.4819

 eigenvalue-minimisations  :  3753
 total energy-change (2. order) : 0.1347615E+03  (-0.5925566E+02)
 number of electron     700.0000061 magnetization      68.3963014
 augmentation part      313.1699958 magnetization      51.8729314

 Broyden mixing:
  rms(total) = 0.11620E+02    rms(broyden)= 0.11619E+02
  rms(prec ) = 0.15576E+02
  weight for this iteration     100.00

 eigenvalues of (default mixing * dielectric matrix)
  average eigenvalue GAMMA=   0.4548
  0.6868  0.2227

 Free energy of the ion-electron system (eV)
  ---------------------------------------------------
  alpha Z        PSCENC =      1827.06138947
  Ewald energy   TEWEN  =    455978.91936086
  -Hartree energ DENC   =   -522456.53169814
  -exchange      EXHF   =         0.00000000
  -V(xc)+E(xc)   XCENC  =      1402.04359355
  PAW double counting   =     61824.94385804   -64534.14845983
  entropy T*S    EENTRO =        -0.03208986
  eigenvalues    EBANDS =     -4594.44361232
  atomic energy  EATOM  =     69939.05554655
  Solvation  Ediel_sol  =         0.00000000
  ---------------------------------------------------
  free energy    TOTEN  =      -613.13211167 eV

  energy without entropy =     -613.10002181  energy(sigma->0) =     -613.12408921


--------------------------------------------------------------------------------------------------------




----------------------------------------- Iteration    1(   8)  ---------------------------------------


    POTLOK:  cpu time    0.0547: real time    0.0547
    SETDIJ:  cpu time    0.0080: real time    0.0080
    EDDIAG:  cpu time    0.8585: real time    0.8585
  RMM-DIIS:  cpu time    2.1030: real time    2.1030
    ORTHCH:  cpu time    0.2836: real time    0.2836
       DOS:  cpu time    0.0015: real time    0.0015
    CHARGE:  cpu time    0.1624: real time    0.1624
    MIXING:  cpu time    0.0016: real time    0.0016
    --------------------------------------------
      LOOP:  cpu time    3.4747: real time    3.4770

 eigenvalue-minimisations  :  3763
 total energy-change (2. order) :-0.1158829E+03  (-0.1545657E+02)
 number of electron     699.9999867 magnetization      66.0162856
 augmentation part      304.5341359 magnetization      48.8935596

 Broyden mixing:
  rms(total) = 0.17721E+02    rms(broyden)= 0.17720E+02
  rms(prec ) = 0.21933E+02
  weight for this iteration     100.00

 eigenvalues of (default mixing * dielectric matrix)
  average eigenvalue GAMMA=   0.5268
  1.2074  0.2965  0.0764

 Free energy of the ion-electron system (eV)
  ---------------------------------------------------
  alpha Z        PSCENC =      1827.06138947
  Ewald energy   TEWEN  =    455978.91936086
  -Hartree energ DENC   =   -522443.81693503
  -exchange      EXHF   =         0.00000000
  -V(xc)+E(xc)   XCENC  =      1403.62374360
  PAW double counting   =     62498.36155302   -65234.58287817
  entropy T*S    EENTRO =         0.02482836
  eigenvalues    EBANDS =     -4697.66163506
  atomic energy  EATOM  =     69939.05554655
  Solvation  Ediel_sol  =         0.00000000
  ---------------------------------------------------
  free energy    TOTEN  =      -729.01502639 eV

  energy without entropy =     -729.03985475  energy(sigma->0) =     -729.02123348


--------------------------------------------------------------------------------------------------------




----------------------------------------- Iteration    1(   9)  ---------------------------------------


    POTLOK:  cpu time    0.0544: real time    0.0544
    SETDIJ:  cpu time    0.0080: real time    0.0080
    EDDIAG:  cpu time    0.8579: real time    0.8579
  RMM-DIIS:  cpu time    2.0790: real time    2.0790
    ORTHCH:  cpu time    0.2835: real time    0.2835
       DOS:  cpu time    0.0015: real time    0.0015
    CHARGE:  cpu time    0.1636: real time    0.1637
    MIXING:  cpu time    0.0019: real time    0.0025
    --------------------------------------------
      LOOP:  cpu time    3.4513: real time    3.4549

 eigenvalue-minimisations  :  3729
 total energy-change (2. order) : 0.1500641E+03  (-0.2047176E+02)
 number of electron     699.9999956 magnetization      64.8222891
 augmentation part      342.9142483 magnetization      46.5864053

 Broyden mixing:
  rms(total) = 0.11249E+02    rms(broyden)= 0.11249E+02
  rms(prec ) = 0.12385E+02
  weight for this iteration     100.00

 eigenvalues of (default mixing * dielectric matrix)
  average eigenvalue GAMMA=   0.4955
  1.4337  0.3438  0.1023  0.1023

 Free energy of the ion-electron system (eV)
  ---------------------------------------------------
  alpha Z        PSCENC =      1827.06138947
  Ewald energy   TEWEN  =    455978.91936086
  -Hartree energ DENC   =   -522072.21972703
  -exchange      EXHF   =         0.00000000
  -V(xc)+E(xc)   XCENC  =      1397.57377696
  PAW double counting   =     63651.90574057   -66379.77849238
  entropy T*S    EENTRO =         0.01685768
  eigenvalues    EBANDS =     -4921.48539221
  atomic energy  EATOM  =     69939.05554655
  Solvation  Ediel_sol  =         0.00000000
  ---------------------------------------------------
  free energy    TOTEN  =      -578.95093952 eV

  energy without entropy =     -578.96779720  energy(sigma->0) =     -578.95515394


--------------------------------------------------------------------------------------------------------




----------------------------------------- Iteration    1(  10)  ---------------------------------------


    POTLOK:  cpu time    0.0543: real time    0.0543
    SETDIJ:  cpu time    0.0080: real time    0.0080
    EDDIAG:  cpu time    0.8577: real time    0.8578
  RMM-DIIS:  cpu time    2.0981: real time    2.0981
    ORTHCH:  cpu time    0.2816: real time    0.2816
       DOS:  cpu time    0.0019: real time    0.0019
    CHARGE:  cpu time    0.1647: real time    0.1647
    MIXING:  cpu time    0.0019: real time    0.0019
    --------------------------------------------
      LOOP:  cpu time    3.4696: real time    3.4719

 eigenvalue-minimisations  :  3751
 total energy-change (2. order) : 0.5051840E+02  (-0.9430417E+01)
 number of electron     699.9999933 magnetization      62.9957514
 augmentation part      360.2138570 magnetization      45.1228752

 Broyden mixing:
  rms(total) = 0.58051E+01    rms(broyden)= 0.58046E+01
  rms(prec ) = 0.66202E+01
  weight for this iteration     100.00

 eigenvalues of (default mixing * dielectric matrix)
  average eigenvalue GAMMA=   0.5066
  1.6622  0.4711  0.1587  0.1587  0.0821

 Free energy of the ion-electron system (eV)
  ---------------------------------------------------
  alpha Z        PSCENC =      1827.06138947
  Ewald energy   TEWEN  =    455978.91936086
  -Hartree energ DENC   =   -521903.48580619
  -exchange      EXHF   =         0.00000000
  -V(xc)+E(xc)   XCENC  =      1396.42506483
  PAW double counting   =     64229.64215742   -66959.00362722
  entropy T*S    EENTRO =         0.00316882
  eigenvalues    EBANDS =     -5037.04979113
  atomic energy  EATOM  =     69939.05554655
  Solvation  Ediel_sol  =         0.00000000
  ---------------------------------------------------
  free energy    TOTEN  =      -528.43253659 eV

  energy without entropy =     -528.43570541  energy(sigma->0) =     -528.43332880


--------------------------------------------------------------------------------------------------------




----------------------------------------- Iteration    1(  11)  ---------------------------------------


    POTLOK:  cpu time    0.0543: real time    0.0543
    SETDIJ:  cpu time    0.0080: real time    0.0080
    EDDIAG:  cpu time    0.8593: real time    0.8593
  RMM-DIIS:  cpu time    2.0984: real time    2.0984
    ORTHCH:  cpu time    0.2820: real time    0.2820
       DOS:  cpu time    0.0024: real time    0.0024
    CHARGE:  cpu time    0.1641: real time    0.1641
    MIXING:  cpu time    0.0019: real time    0.0019
    --------------------------------------------
      LOOP:  cpu time    3.4720: real time    3.4742

 eigenvalue-minimisations  :  3751
 total energy-change (2. order) : 0.3428218E+02  (-0.3990495E+01)
 number of electron     699.9999954 magnetization      61.1968202
 augmentation part      357.8876702 magnetization      42.2773903

 Broyden mixing:
  rms(total) = 0.45795E+01    rms(broyden)= 0.45793E+01
  rms(prec ) = 0.53735E+01
  weight for this iteration     100.00

 eigenvalues of (default mixing * dielectric matrix)
  average eigenvalue GAMMA=   0.4916
  1.7659  0.5171  0.2324  0.2324  0.0857  0.1162

 Free energy of the ion-electron system (eV)
  ---------------------------------------------------
  alpha Z        PSCENC =      1827.06138947
  Ewald energy   TEWEN  =    455978.91936086
  -Hartree energ DENC   =   -522083.24852623
  -exchange      EXHF   =         0.00000000
  -V(xc)+E(xc)   XCENC  =      1401.36828807
  PAW double counting   =     65171.58013645   -67936.57910496
  entropy T*S    EENTRO =        -0.00515345
  eigenvalues    EBANDS =     -4792.30229107
  atomic energy  EATOM  =     69939.05554655
  Solvation  Ediel_sol  =         0.00000000
  ---------------------------------------------------
  free energy    TOTEN  =      -494.15035430 eV

  energy without entropy =     -494.14520085  energy(sigma->0) =     -494.14906594


--------------------------------------------------------------------------------------------------------




----------------------------------------- Iteration    1(  12)  ---------------------------------------


    POTLOK:  cpu time    0.0547: real time    0.0547
    SETDIJ:  cpu time    0.0080: real time    0.0080
    EDDIAG:  cpu time    0.8584: real time    0.8584
  RMM-DIIS:  cpu time    2.1180: real time    2.1180
    ORTHCH:  cpu time    0.2838: real time    0.2838
       DOS:  cpu time    0.0018: real time    0.0018
    CHARGE:  cpu time    0.1648: real time    0.1648
    MIXING:  cpu time    0.0021: real time    0.0021
    --------------------------------------------
      LOOP:  cpu time    3.4931: real time    3.4952

 eigenvalue-minimisations  :  3771
 total energy-change (2. order) : 0.1838223E+02  (-0.1843694E+01)
 number of electron     699.9999954 magnetization      59.2347576
 augmentation part      350.9329967 magnetization      40.1228803

 Broyden mixing:
  rms(total) = 0.38178E+01    rms(broyden)= 0.38176E+01
  rms(prec ) = 0.45713E+01
  weight for this iteration     100.00

 eigenvalues of (default mixing * dielectric matrix)
  average eigenvalue GAMMA=   0.4896
  1.8527  0.4562  0.4562  0.3004  0.0843  0.1386  0.1386

 Free energy of the ion-electron system (eV)
  ---------------------------------------------------
  alpha Z        PSCENC =      1827.06138947
  Ewald energy   TEWEN  =    455978.91936086
  -Hartree energ DENC   =   -522298.48680111
  -exchange      EXHF   =         0.00000000
  -V(xc)+E(xc)   XCENC  =      1406.31183184
  PAW double counting   =     65968.18944212   -68761.90579389
  entropy T*S    EENTRO =        -0.00658275
  eigenvalues    EBANDS =     -4534.90651845
  atomic energy  EATOM  =     69939.05554655
  Solvation  Ediel_sol  =         0.00000000
  ---------------------------------------------------
  free energy    TOTEN  =      -475.76812534 eV

  energy without entropy =     -475.76154259  energy(sigma->0) =     -475.76647965


--------------------------------------------------------------------------------------------------------




----------------------------------------- Iteration    1(  13)  ---------------------------------------


    POTLOK:  cpu time    0.0545: real time    0.0545
    SETDIJ:  cpu time    0.0080: real time    0.0080
    EDDIAG:  cpu time    0.8587: real time    0.8587
  RMM-DIIS:  cpu time    2.1191: real time    2.1191
    ORTHCH:  cpu time    0.2837: real time    0.2837
       DOS:  cpu time    0.0017: real time    0.0017
    CHARGE:  cpu time    0.1635: real time    0.1635
    MIXING:  cpu time    0.0022: real time    0.0022
    --------------------------------------------
      LOOP:  cpu time    3.4928: real time    3.4949

 eigenvalue-minimisations  :  3791
 total energy-change (2. order) : 0.1197332E+02  (-0.1190435E+01)
 number of electron     699.9999944 magnetization      57.2998780
 augmentation part      345.8643070 magnetization      38.0868426

 Broyden mixing:
  rms(total) = 0.28682E+01    rms(broyden)= 0.28680E+01
  rms(prec ) = 0.32569E+01
  weight for this iteration     100.00

 eigenvalues of (default mixing * dielectric matrix)
  average eigenvalue GAMMA=   0.5211
  1.9780  0.6816  0.6816  0.2697  0.0846  0.1935  0.1224  0.1573

 Free energy of the ion-electron system (eV)
  ---------------------------------------------------
  alpha Z        PSCENC =      1827.06138947
  Ewald energy   TEWEN  =    455978.91936086
  -Hartree energ DENC   =   -522437.35319715
  -exchange      EXHF   =         0.00000000
  -V(xc)+E(xc)   XCENC  =      1410.45217091
  PAW double counting   =     66606.68263971   -69409.43343907
  entropy T*S    EENTRO =        -0.01695114
  eigenvalues    EBANDS =     -4379.16232188
  atomic energy  EATOM  =     69939.05554655
  Solvation  Ediel_sol  =         0.00000000
  ---------------------------------------------------
  free energy    TOTEN  =      -463.79480174 eV

  energy without entropy =     -463.77785060  energy(sigma->0) =     -463.79056395


--------------------------------------------------------------------------------------------------------




----------------------------------------- Iteration    1(  14)  ---------------------------------------


    POTLOK:  cpu time    0.0544: real time    0.0544
    SETDIJ:  cpu time    0.0080: real time    0.0080
    EDDIAG:  cpu time    0.8597: real time    0.8597
  RMM-DIIS:  cpu time    2.1305: real time    2.1306
    ORTHCH:  cpu time    0.2823: real time    0.2823
       DOS:  cpu time    0.0017: real time    0.0017
    CHARGE:  cpu time    0.1642: real time    0.1642
    MIXING:  cpu time    0.0023: real time    0.0023
    --------------------------------------------
      LOOP:  cpu time    3.5046: real time    3.5069

 eigenvalue-minimisations  :  3820
 total energy-change (2. order) : 0.5611387E+01  (-0.8566010E+00)
 number of electron     699.9999980 magnetization      55.7085668
 augmentation part      343.8103566 magnetization      36.0711170

 Broyden mixing:
  rms(total) = 0.21384E+01    rms(broyden)= 0.21382E+01
  rms(prec ) = 0.23899E+01
  weight for this iteration     100.00

 eigenvalues of (default mixing * dielectric matrix)
  average eigenvalue GAMMA=   0.5107
  2.0191  0.7488  0.7488  0.3342  0.2026  0.2026  0.0845  0.1279  0.1279

 Free energy of the ion-electron system (eV)
  ---------------------------------------------------
  alpha Z        PSCENC =      1827.06138947
  Ewald energy   TEWEN  =    455978.91936086
  -Hartree energ DENC   =   -522533.05157170
  -exchange      EXHF   =         0.00000000
  -V(xc)+E(xc)   XCENC  =      1413.09751984
  PAW double counting   =     66993.42210701   -69789.66671184
  entropy T*S    EENTRO =         0.01930439
  eigenvalues    EBANDS =     -4287.04035978
  atomic energy  EATOM  =     69939.05554655
  Solvation  Ediel_sol  =         0.00000000
  ---------------------------------------------------
  free energy    TOTEN  =      -458.18341519 eV

  energy without entropy =     -458.20271958  energy(sigma->0) =     -458.18824129


--------------------------------------------------------------------------------------------------------




----------------------------------------- Iteration    1(  15)  ---------------------------------------


    POTLOK:  cpu time    0.0547: real time    0.0547
    SETDIJ:  cpu time    0.0080: real time    0.0080
    EDDIAG:  cpu time    0.8588: real time    0.8588
  RMM-DIIS:  cpu time    2.1231: real time    2.1231
    ORTHCH:  cpu time    0.2801: real time    0.2801
       DOS:  cpu time    0.0018: real time    0.0018
    CHARGE:  cpu time    0.1655: real time    0.1655
    MIXING:  cpu time    0.0025: real time    0.0025
    --------------------------------------------
      LOOP:  cpu time    3.4960: real time    3.4981

 eigenvalue-minimisations  :  3800
 total energy-change (2. order) : 0.1558052E+01  (-0.4815102E+00)
 number of electron     699.9999958 magnetization      53.8351112
 augmentation part      342.1831562 magnetization      33.9785438

 Broyden mixing:
  rms(total) = 0.19022E+01    rms(broyden)= 0.19021E+01
  rms(prec ) = 0.20986E+01
  weight for this iteration     100.00

 eigenvalues of (default mixing * dielectric matrix)
  average eigenvalue GAMMA=   0.5040
  2.0050  0.8123  0.8123  0.4774  0.2263  0.2263  0.0846  0.1390  0.1390  0.1182

 Free energy of the ion-electron system (eV)
  ---------------------------------------------------
  alpha Z        PSCENC =      1827.06138947
  Ewald energy   TEWEN  =    455978.91936086
  -Hartree energ DENC   =   -522636.59502016
  -exchange      EXHF   =         0.00000000
  -V(xc)+E(xc)   XCENC  =      1414.06711299
  PAW double counting   =     67164.56519012   -69949.72583398
  entropy T*S    EENTRO =         0.00188185
  eigenvalues    EBANDS =     -4193.97499094
[...]
  Total     -21.15994     2.32369    -1.59353     0.90558    -0.13046    -0.29785
  in kB     -11.53570     1.26680    -0.86874     0.49369    -0.07112    -0.16238
  external pressure =       -3.71 kB  Pullay stress =        0.00 kB


 VOLUME and BASIS-vectors are now :
 -----------------------------------------------------------------------------
  energy-cutoff  :      450.00
  volume of cell :     2938.87
      direct lattice vectors                 reciprocal lattice vectors
     7.778498173  0.000000000  0.000000000     0.128559521  0.000000000  0.000000000
     0.000000000 13.137704849  0.000000000     0.000000000  0.076116796  0.000000000
     0.000000000  0.000000000 28.758470535     0.000000000  0.000000000  0.034772364

  length of vectors
     7.778498173 13.137704849 28.758470535     0.128559521  0.076116796  0.034772364


 FORCES acting on ions
    electron-ion (+dipol)            ewald-force                    non-local-force                 convergence-correction
 -----------------------------------------------------------------------------------------------
   -.171E+03 -.170E+03 -.294E+04   0.170E+03 0.170E+03 0.294E+04   0.104E+01 0.152E+00 0.669E+00   0.185E-02 0.141E-01 0.114E-02
   -.177E+02 0.259E+03 -.309E+04   0.185E+02 -.259E+03 0.309E+04   -.725E+00 0.289E+00 -.906E+00   -.709E-03 -.211E-01 -.234E-02
   -.162E+02 0.176E+03 -.108E+04   0.164E+02 -.175E+03 0.108E+04   -.177E+00 -.113E+01 -.201E+00   0.758E-02 -.244E-01 -.606E-03
   -.295E+02 -.394E+02 -.935E+03   0.290E+02 0.384E+02 0.936E+03   0.492E+00 0.104E+01 -.968E+00   0.104E-02 -.524E-02 0.268E-02
   0.418E+02 -.162E+02 0.916E+03   -.412E+02 0.155E+02 -.916E+03   -.608E+00 0.683E+00 0.202E+00   0.131E-02 -.253E-01 -.776E-02
   -.203E+02 -.114E+03 -.298E+04   0.218E+02 0.115E+03 0.298E+04   -.154E+01 -.114E+01 -.874E-01   0.642E-02 0.108E-01 0.113E-01
   -.349E+02 0.631E+02 0.114E+04   0.347E+02 -.632E+02 -.114E+04   0.169E+00 -.181E-01 0.773E-01   0.191E-02 0.105E-01 -.658E-02
   0.872E+02 -.649E+02 -.101E+04   -.868E+02 0.635E+02 0.101E+04   -.392E+00 0.139E+01 -.253E+00   -.753E-02 -.319E-02 0.714E-02
   0.218E+02 -.916E+02 0.328E+04   -.210E+02 0.922E+02 -.328E+04   -.872E+00 -.658E+00 0.151E+00   0.652E-02 0.305E-02 0.614E-02
   -.141E+03 -.119E+03 -.847E+03   0.141E+03 0.119E+03 0.847E+03   0.268E+00 0.142E+00 0.556E+00   0.468E-02 0.208E-01 0.772E-02
   -.754E+02 -.416E+02 -.313E+04   0.756E+02 0.408E+02 0.313E+04   -.262E+00 0.779E+00 -.671E+00   0.323E-03 -.113E-01 -.574E-02
   0.650E+01 -.135E+03 0.116E+04   -.637E+01 0.135E+03 -.116E+04   -.997E-01 0.406E+00 -.117E+00   -.760E-02 0.146E-01 -.749E-02
   0.246E+02 0.130E+03 -.109E+04   -.244E+02 -.129E+03 0.109E+04   -.137E+00 -.130E+01 0.888E+00   -.757E-02 -.241E-01 -.351E-02
   0.253E+02 0.260E+03 -.313E+04   -.259E+02 -.260E+03 0.313E+04   0.593E+00 0.136E+00 -.111E+01   0.298E-02 -.178E-01 0.243E-02
   0.436E+01 0.626E+02 0.108E+04   -.402E+01 -.625E+02 -.108E+04   -.288E+00 -.589E-01 -.170E+00   0.373E-02 0.171E-01 -.903E-02
   0.698E+02 -.101E+03 -.301E+04   -.693E+02 0.103E+03 0.301E+04   -.482E+00 -.187E+01 -.508E+00   0.428E-02 0.197E-01 0.291E-02
   -.431E+02 -.571E+02 -.103E+04   0.431E+02 0.567E+02 0.103E+04   -.101E-01 0.424E+00 0.159E+00   0.327E-02 0.543E-02 -.652E-02
   -.899E+01 -.573E+02 0.829E+03   0.892E+01 0.572E+02 -.829E+03   0.677E-01 0.201E-01 0.514E+00   0.254E-04 -.129E-01 -.110E-01
   0.120E+02 -.528E+02 0.322E+04   -.120E+02 0.532E+02 -.322E+04   0.540E-02 -.527E+00 -.418E+00   -.144E-02 0.484E-02 0.582E-02
   -.451E+02 0.123E+03 0.323E+04   0.455E+02 -.122E+03 -.323E+04   -.399E+00 -.938E+00 0.198E+01   -.241E-02 0.154E-01 -.118E-01
   -.608E+02 -.126E+02 0.992E+03   0.602E+02 0.124E+02 -.993E+03   0.527E+00 0.219E+00 0.108E+01   0.747E-02 -.326E-01 -.915E-02
   0.236E+02 0.225E+02 0.108E+04   -.239E+02 -.225E+02 -.108E+04   0.475E+00 0.417E-01 -.698E+00   0.600E-03 0.308E-01 -.590E-02
   0.117E+03 0.277E+02 -.304E+04   -.116E+03 -.274E+02 0.304E+04   -.296E+00 -.338E+00 0.777E-02   0.734E-03 0.996E-02 -.373E-02
   0.113E+03 0.246E+02 -.316E+04   -.113E+03 -.252E+02 0.316E+04   0.483E+00 0.611E+00 -.108E+01   -.145E-02 -.855E-02 -.555E-02
   0.169E+03 0.761E+02 -.956E+03   -.169E+03 -.758E+02 0.956E+03   0.147E+00 -.351E+00 -.333E+00   -.965E-03 0.229E-01 0.239E-03
   0.158E+03 0.467E+02 -.120E+04   -.158E+03 -.470E+02 0.120E+04   -.282E+00 0.253E+00 -.802E-01   -.337E-03 0.605E-02 -.287E-02
   -.110E+03 -.892E+02 -.120E+04   0.109E+03 0.896E+02 0.120E+04   0.587E+00 -.432E+00 0.333E+00   -.213E-02 0.473E-02 -.813E-02
   0.185E+02 -.287E+02 0.123E+04   -.184E+02 0.289E+02 -.123E+04   -.173E+00 -.191E+00 -.125E+01   0.577E-02 0.155E-01 -.866E-02
   0.152E+02 -.705E+02 0.101E+04   -.165E+02 0.720E+02 -.101E+04   0.130E+01 -.142E+01 -.644E+00   -.421E-02 -.722E-02 -.881E-02
   0.733E+01 -.442E+02 0.321E+04   -.706E+01 0.441E+02 -.321E+04   -.256E+00 0.118E+00 0.709E+00   -.521E-02 -.236E-01 -.467E-02
   -.117E+03 -.236E+03 -.294E+04   0.117E+03 0.236E+03 0.294E+04   0.770E-01 -.516E+00 -.243E+00   -.361E-02 0.143E-01 0.894E-02
   0.289E+02 -.635E+02 0.323E+04   -.292E+02 0.637E+02 -.323E+04   0.288E+00 -.252E+00 -.875E+00   0.416E-02 -.197E-01 0.208E-02
   0.233E+02 -.918E+01 -.106E+04   -.236E+02 0.858E+01 0.106E+04   0.381E+00 0.616E+00 0.144E+01   -.258E-02 -.173E-01 -.554E-02
   -.540E+02 -.288E+02 0.115E+04   0.535E+02 0.285E+02 -.115E+04   0.404E+00 0.428E+00 -.196E+00   -.128E-02 -.172E-01 -.107E-01
   -.546E+02 -.206E+02 -.844E+03   0.546E+02 0.208E+02 0.844E+03   -.527E-01 -.157E+00 -.429E-02   0.394E-02 0.246E-01 -.265E-02
   -.265E+02 -.113E+03 0.333E+04   0.257E+02 0.113E+03 -.333E+04   0.827E+00 -.642E-01 0.163E+01   -.519E-02 0.609E-02 0.348E-02
   0.561E+02 0.135E+03 0.326E+04   -.559E+02 -.136E+03 -.326E+04   -.225E+00 0.781E+00 0.104E+01   0.220E-02 0.161E-01 -.126E-01
   -.122E+02 0.148E+03 -.103E+04   0.121E+02 -.147E+03 0.103E+04   0.603E-01 -.138E+01 0.158E+01   -.888E-03 -.271E-01 0.466E-02
   0.748E+02 0.124E+03 -.312E+04   -.758E+02 -.125E+03 0.313E+04   0.105E+01 0.111E+01 -.192E+01   0.400E-02 -.769E-02 0.129E-01
   0.338E+02 -.589E+02 0.327E+04   -.340E+02 0.588E+02 -.327E+04   0.120E+00 0.114E+00 -.689E+00   -.559E-02 -.720E-02 -.170E-01
   0.541E+02 0.145E+03 0.321E+04   -.541E+02 -.146E+03 -.321E+04   0.409E-01 0.806E+00 0.632E+00   0.267E-02 0.252E-01 -.717E-03
   0.108E+03 -.538E+02 0.111E+04   -.108E+03 0.536E+02 -.111E+04   -.517E+00 0.260E+00 -.590E+00   -.953E-02 -.186E-01 -.687E-02
   -.140E+01 -.735E+02 0.104E+04   0.255E+01 0.740E+02 -.104E+04   -.112E+01 -.363E+00 -.716E+00   0.393E-02 -.150E-01 -.739E-02
   -.133E+03 -.116E+03 -.310E+04   0.133E+03 0.116E+03 0.310E+04   0.216E-01 -.796E-01 -.518E+00   -.261E-03 0.827E-02 -.619E-02
   -.717E+02 0.655E+02 0.105E+04   0.716E+02 -.659E+02 -.105E+04   -.333E-01 0.301E+00 0.267E+00   -.380E-02 0.244E-01 -.600E-02
   0.167E+02 0.811E+01 0.326E+04   -.167E+02 -.752E+01 -.326E+04   0.660E-01 -.550E+00 -.100E+01   -.405E-03 -.254E-01 -.118E-01
   -.437E+02 -.705E+02 0.320E+04   0.439E+02 0.705E+02 -.320E+04   -.240E+00 0.102E+00 -.674E+00   -.255E-02 -.158E-01 0.298E-02
   0.206E+02 0.438E+02 0.108E+04   -.207E+02 -.426E+02 -.108E+04   0.770E-01 -.112E+01 -.117E+01   -.877E-02 -.296E-01 -.991E-02
   -.539E+02 0.372E+02 -.883E+03   0.540E+02 -.369E+02 0.884E+03   -.116E+00 -.258E+00 -.743E+00   0.746E-02 -.265E-02 0.118E-01
   -.284E+02 -.125E+03 0.319E+04   0.284E+02 0.125E+03 -.319E+04   -.577E-01 0.481E-01 0.521E-01   0.550E-02 -.228E-01 -.600E-02
   0.120E+03 -.113E+03 -.828E+03   -.120E+03 0.113E+03 0.828E+03   -.161E+00 0.173E+00 0.112E+00   0.173E-02 0.208E-01 0.631E-02
   -.627E+02 -.399E+02 0.324E+04   0.637E+02 0.390E+02 -.324E+04   -.940E+00 0.917E+00 -.645E+00   0.560E-02 -.734E-02 -.183E-01
   0.121E+01 0.473E+02 0.973E+03   -.213E+01 -.471E+02 -.973E+03   0.931E+00 -.317E+00 0.434E+00   -.703E-02 0.149E-01 -.959E-02
   0.153E+03 -.176E+03 -.421E+04   -.153E+03 0.176E+03 0.421E+04   -.497E+00 -.652E+00 0.567E+01   -.175E-02 0.105E-01 0.685E-02
   -.182E+02 0.823E+02 0.423E+04   0.185E+02 -.824E+02 -.422E+04   -.315E+00 0.695E-01 -.473E+01   -.393E-02 0.290E-01 -.318E-02
   0.444E+02 0.803E+02 -.414E+04   -.447E+02 -.804E+02 0.414E+04   0.314E+00 0.820E-01 0.373E+01   -.487E-02 -.586E-02 0.348E-02
   -.328E+02 0.180E+03 0.452E+04   0.334E+02 -.180E+03 -.451E+04   -.621E+00 0.292E+00 -.653E+01   0.105E-02 0.231E-01 -.199E-02
   -.141E+03 0.104E+03 -.408E+04   0.141E+03 -.104E+03 0.408E+04   -.127E-01 0.336E+00 0.359E+01   -.504E-02 -.101E-01 0.292E-02
   -.171E+02 0.140E+03 0.145E+04   0.172E+02 -.140E+03 -.145E+04   -.155E+00 0.233E+00 0.750E+00   0.377E-02 0.195E-01 -.916E-02
   0.457E+02 -.534E+02 -.181E+04   -.450E+02 0.526E+02 0.181E+04   -.626E+00 0.866E+00 0.369E+01   -.210E-02 0.948E-02 0.180E-02
   0.137E+02 -.112E+03 -.582E+03   -.135E+02 0.113E+03 0.583E+03   -.122E+00 -.727E+00 -.107E+01   -.330E-02 0.107E-01 0.214E-02
   -.818E+02 0.372E+02 -.693E+03   0.826E+02 -.375E+02 0.693E+03   -.766E+00 0.269E+00 -.229E+00   0.192E-02 -.123E-01 -.354E-02
   0.126E+02 -.291E+02 0.191E+04   -.124E+02 0.291E+02 -.190E+04   -.268E+00 -.627E-01 -.280E+01   -.114E-02 -.880E-02 0.637E-03
   0.667E+02 0.476E+02 -.745E+03   -.676E+02 -.478E+02 0.745E+03   0.874E+00 0.166E+00 -.308E+00   -.392E-03 -.784E-02 -.298E-02
   -.296E+02 0.489E+02 -.189E+04   0.297E+02 -.490E+02 0.189E+04   -.104E+00 0.871E-01 0.377E+01   0.107E-02 -.441E-02 -.309E-02
   0.812E+01 0.701E+02 -.182E+04   -.799E+01 -.697E+02 0.182E+04   -.133E+00 -.374E+00 0.236E+01   -.186E-02 -.116E-01 0.937E-03
   0.313E+02 0.451E+02 0.753E+03   -.316E+02 -.451E+02 -.754E+03   0.310E+00 -.114E+00 0.862E+00   0.178E-02 0.177E-01 -.471E-02
   0.134E+02 -.325E+02 -.185E+04   -.139E+02 0.328E+02 0.184E+04   0.515E+00 -.397E+00 0.289E+01   -.125E-03 0.500E-02 -.493E-02
   -.669E+02 0.212E+01 -.630E+03   0.671E+02 -.228E+01 0.630E+03   -.274E+00 0.153E+00 -.584E+00   -.135E-02 0.112E-01 -.603E-03
   0.254E+02 0.149E+02 0.192E+04   -.256E+02 -.146E+02 -.192E+04   0.175E+00 -.410E+00 -.345E+01   -.176E-03 -.467E-02 -.719E-02
   -.819E+01 -.413E+00 0.192E+04   0.767E+01 0.645E+00 -.192E+04   0.445E+00 -.981E-01 -.274E+01   0.798E-04 0.103E-01 -.893E-02
   -.342E+02 -.203E+02 0.661E+03   0.344E+02 0.204E+02 -.662E+03   -.237E+00 -.937E-01 0.563E+00   0.661E-02 -.111E-01 -.500E-02
   -.983E+01 0.206E+02 -.272E+04   0.963E+01 -.204E+02 0.272E+04   0.209E+00 -.220E+00 -.327E+01   -.411E-02 0.777E-02 0.408E-03
   0.535E+01 -.456E+02 -.256E+04   -.575E+01 0.454E+02 0.256E+04   0.395E+00 0.163E+00 -.430E+01   0.429E-03 -.930E-02 0.445E-03
 -----------------------------------------------------------------------------------------------
   0.834E+00 0.347E+01 0.734E+01   -.107E-12 -.121E-12 0.909E-11   -.847E+00 -.350E+01 -.710E+01   -.483E-02 -.151E-02 -.196E+00
 
 
 POSITION                                       TOTAL-FORCE (eV/Angst)
 -----------------------------------------------------------------------------------
      0.08761      6.28940      6.83278        -0.002780      0.004009     -0.004405
      1.47028     12.75952      7.07956        -0.001681      0.001774      0.000113
      0.12408      0.37653      5.06664        -0.002297     -0.001061     -0.003156
      1.37992      2.56705      4.99949        -0.003708     -0.000756      0.001581
      1.40410     12.82160      2.95254         0.000110     -0.001208      0.002281
      6.73332      4.11919      6.83155         0.000909     -0.004812      0.000292
      1.41457      4.06383      2.79719        -0.035057     -0.089567     -0.087055
      4.04659      2.59778      4.98199         0.000630      0.000788     -0.003361
      5.38075      9.24278      0.71169        -0.003900     -0.007331      0.005006
      0.15198      4.73794      4.83134        -0.005935     -0.000300      0.001153
      5.30769     10.58228      7.00352        -0.001012     -0.002677      0.000605
      4.02729      3.93666      2.80194         0.019997     -0.035396     -0.070553
      2.71821      0.43975      4.98225         0.002118     -0.001684     -0.001350
      6.56135     12.78848      7.07742        -0.002163     -0.000309     -0.001900
      6.60979      8.41264      2.76411         0.049702      0.081153     -0.039146
      5.37791      6.34340      6.83750        -0.005891     -0.004403     -0.000197
      5.36403      9.13207      4.86557        -0.004095     -0.001826      0.001915
      0.13103     10.63096      2.91857         0.001302     -0.001849      0.000852
      0.14422      9.22923      0.79266        -0.013746     -0.065003     -0.008588
      2.77871      4.70328      0.72574         0.028944     -0.006105      0.043571
      6.60906     12.80815      2.88010        -0.000622     -0.002642      0.000446
      0.11461      6.18628      2.75108         0.166760      0.118410      0.057713
      4.06669      8.46609      6.86677        -0.000084     -0.002406      0.003929
      2.78724     10.60741      7.08416        -0.005120      0.002198      0.002772
      4.05441      6.90779      4.85593        -0.002376     -0.001757      0.002929
      2.72123      9.14991      4.97448         0.000128     -0.000748     -0.002367
      0.13310      9.11056      4.92966        -0.000734     -0.000543     -0.001255
      6.63818      3.96691      2.81648        -0.000111     -0.051642     -0.054890
      2.65531     10.63517      2.83430         0.005869     -0.005272     -0.051408
      2.66192      0.32919      0.88456         0.004231      0.030640     -0.008552
      1.42067      4.20571      6.92543        -0.003374     -0.003952     -0.003414
      6.60150     11.37216      0.82930         0.024956      0.011810     -0.002833
      4.00733     11.28929      4.87075         0.004502     -0.000389     -0.000067
      5.32098      1.83034      2.83911        -0.027165      0.045327      0.019950
      6.63025      6.95103      4.79059        -0.001898      0.001498      0.005487
      2.70894      9.20606      0.66071        -0.014153      0.015167      0.043094
      0.11363      4.68562      0.72988         0.003301      0.026183      0.048170
      5.30861      0.41731      4.92376        -0.000127     -0.002357     -0.004347
      5.28061      1.78322      7.02140        -0.003215     -0.000453     -0.000476
      4.01180      2.43913      0.81050        -0.034132     -0.051056     -0.042889
      6.62988      7.02267      0.69623         0.024767     -0.007964      0.067650
      2.70483      1.84323      2.88434        -0.000260     -0.002631     -0.002957
      5.38517     10.60422      2.82717         0.032370      0.070810     -0.053638
      6.59793      8.43502      6.91636        -0.006358     -0.000279      0.003611
      2.75075      6.21700      2.72905        -0.134171     -0.046901      0.117593
      5.29931      0.33988      0.82306         0.037645      0.013775     -0.026123
      1.44012     11.34383      0.85416        -0.027508      0.026430     -0.031942
      4.02126     12.82125      2.87083        -0.000516     -0.002043      0.000967
      6.55085      2.57059      4.92873        -0.002074      0.000024     -0.001548
      0.16465      0.33401      0.83661        -0.012302      0.109912      0.080015
      5.35621      4.73515      4.87087        -0.001856     -0.000228      0.004611
      6.65773      2.46519      0.77459         0.045895     -0.036125      0.057618
      1.38750      8.46756      2.77258         0.006258     -0.081689      0.154492
      4.34000      4.15389      7.24388        -0.004505     -0.007364     -0.003660
      1.37429      6.93127      0.68822         0.027692      0.017269      0.093653
      7.73757      1.88147      7.25286        -0.001750     -0.001131     -0.004246
      4.17387      7.03491      0.25378        -0.005680     -0.062155     -0.165555
      2.65541      2.00190      7.21970        -0.005344     -0.002033     -0.002974
      3.95023      8.52327      2.74364        -0.043357      0.075520      0.022728
      2.81570      6.30484      7.13859        -0.001546      0.005761      0.003425
      2.76487      4.66840      4.87781         0.000919     -0.001141      0.002029
      6.52323     11.38030      4.95336        -0.004197     -0.000966     -0.000168
      4.04507     11.36964      0.92515         0.009547      0.007532     -0.027256
      1.46829     11.32286      5.05005         0.001404     -0.003737     -0.001059
      0.08316     10.64885      7.16347        -0.001457      0.000082     -0.000742
      4.05005     12.73639      6.86384        -0.002867      0.000248      0.001797
      5.32598      6.17665      2.70407         0.029955     -0.094189     -0.098182
      1.41275      8.47335      7.14299        -0.002111     -0.008212      0.001489
      1.43103      6.95323      4.81925        -0.001460      0.007009     -0.000269
      1.46838      2.54604      0.81071        -0.015326     -0.112242      0.035751
      5.32330      4.58808      0.74783        -0.072640      0.144698     -0.069478
      0.11643      1.79635      2.92600        -0.003692      0.001339     -0.000274
      1.28637      1.99423      9.36199         0.001700      0.004860     -0.002962
      1.90023      7.27894      9.25078        -0.005260     -0.005694     -0.004046
 -----------------------------------------------------------------------------------
    total drift:                               -0.017395     -0.029931      0.041519


--------------------------------------------------------------------------------------------------------



  FREE ENERGIE OF THE ION-ELECTRON SYSTEM (eV)
  ---------------------------------------------------
  free  energy   TOTEN  =      -509.03057938 eV

  energy  without entropy=     -509.05041152  energy(sigma->0) =     -509.03553741
 
 d Force = 0.1712707E-03[ 0.844E-04, 0.258E-03]  d Energy = 0.1840597E-03-0.128E-04
 d Force =-0.1839273E+02[-0.184E+02,-0.184E+02]  d Ewald  =-0.1839273E+02 0.594E-06


--------------------------------------------------------------------------------------------------------


    POTLOK:  cpu time    0.0640: real time    0.0640


--------------------------------------------------------------------------------------------------------


 Conjugate gradient step on ions:
 trial-energy change:   -0.000184  1 .order   -0.000171   -0.000258   -0.000084
  (g-gl).g = 0.317E-04      g.g   = 0.294E-04  gl.gl    = 0.533E-04
 g(Force)  = 0.294E-04   g(Stress)= 0.000E+00 ortho     =-0.782E-07
 gamma     =   0.59449
 trial     =   8.78686
 opt step  =  11.49356  (harmonic =  13.05765) maximal distance =0.00185630
 next E    =  -509.030593   (d E  =  -0.00020)


--------------------------------------------------------------------------------------------------------


  
 reached required accuracy - stopping structural energy minimisation
     LOOP+:  cpu time   45.1724: real time   45.2077
    4ORBIT:  cpu time    0.0000: real time    0.0000

 total amount of memory used by VASP on root node    62473. kBytes
========================================================================

   base      :      30000. kBytes
   nonlr-proj:       4535. kBytes
   fftplans  :       2057. kBytes
   grid      :       5738. kBytes
   one-center:        124. kBytes
   wavefun   :      20019. kBytes
 
  
  
 General timing and accounting informations for this job:
 ========================================================
  
                  Total CPU time used (sec):     1530.041
                            User time (sec):     1525.402
                          System time (sec):        4.639
                         Elapsed time (sec):     1531.504
  
                   Maximum memory used (kb):      143856.
                   Average memory used (kb):           0.
  
                          Minor page faults:        66192
                          Major page faults:            0
                 Voluntary context switches:        21899
