 vasp.5.4.4.18Apr17-6-g9f103f2a35 (build Jan 21 2021 13:12:21) complex          
  
 executed on             LinuxIFC date 2021.12.20  22:16:54
 running on   16 total cores
 distrk:  each k-point on   16 cores,    1 groups
 distr:  one band on NCORES_PER_BAND=   1 cores,   16 groups


--------------------------------------------------------------------------------------------------------


 INCAR:
 POTCAR:    PAW_PBE Nb_sv 25May2007               
 POTCAR:    PAW_PBE Cl 17Jan2003                  

 ----------------------------------------------------------------------------- 
|                                                                             |
|           W    W    AA    RRRRR   N    N  II  N    N   GGGG   !!!           |
|           W    W   A  A   R    R  NN   N  II  NN   N  G    G  !!!           |
|           W    W  A    A  R    R  N N  N  II  N N  N  G       !!!           |
|           W WW W  AAAAAA  RRRRR   N  N N  II  N  N N  G  GGG   !            |
|           WW  WW  A    A  R   R   N   NN  II  N   NN  G    G                |
|           W    W  A    A  R    R  N    N  II  N    N   GGGG   !!!           |
|                                                                             |
|      For optimal performance we recommend to set                            |
|        NCORE= 4 - approx SQRT( number of cores)                             |
|      NCORE specifies how many cores store one orbital (NPAR=cpu/NCORE).     |
|      This setting can  greatly improve the performance of VASP for DFT.     |
|      The default,   NCORE=1            might be grossly inefficient         |
|      on modern multi-core architectures or massively parallel machines.     |
|      Do your own testing !!!!                                               |
|      Unfortunately you need to use the default for GW and RPA calculations. |
|      (for HF NCORE is supported but not extensively tested yet)             |
|                                                                             |
 ----------------------------------------------------------------------------- 

 POTCAR:    PAW_PBE Nb_sv 25May2007               
   VRHFIN =Nb: 4p5s4d                                                           
   LEXCH  = PE                                                                  
   EATOM  =  1555.1913 eV,  114.3033 Ry                                         
                                                                                
   TITEL  = PAW_PBE Nb_sv 25May2007                                             
   LULTRA =        F    use ultrasoft PP ?                                      
   IUNSCR =        1    unscreen: 0-lin 1-nonlin 2-no                           
   RPACOR =    1.800    partial core radius                                     
   POMASS =   92.910; ZVAL   =   13.000    mass and valenz                      
   RCORE  =    2.400    outmost cutoff radius                                   
   RWIGS  =    2.400; RWIGS  =    1.270    wigner-seitz radius (au A)           
   ENMAX  =  293.235; ENMIN  =  219.927 eV                                      
   ICORE  =        3    local potential                                         
   LCOR   =        T    correct aug charges                                     
   LPAW   =        T    paw PP                                                  
   EAUG   =  455.659                                                            
   DEXC   =    0.000                                                            
   RMAX   =    2.456    core radius for proj-oper                               
   RAUG   =    1.300    factor for augmentation sphere                          
   RDEP   =    2.451    radius for radial grids                                 
   RDEPT  =    1.956    core radius for aug-charge                              
                                                                                
   Atomic configuration                                                         
   11 entries                                                                   
     n  l   j            E        occ.                                          
     1  0  0.50    -18805.2457   2.0000                                         
     2  0  0.50     -2630.2869   2.0000                                         
     2  1  1.50     -2348.4046   6.0000                                         
     3  0  0.50      -438.8757   2.0000                                         
     3  1  1.50      -346.7588   6.0000                                         
     3  2  2.50      -196.2560  10.0000                                         
     4  0  0.50       -58.3859   2.0000                                         
     5  0  0.50        -3.9816   1.0000                                         
     4  1  1.50       -34.5141   6.0000                                         
     4  2  2.50        -3.0408   4.0000                                         
     4  3  2.50        -1.3606   0.0000                                         
   Description                                                                  
     l       E           TYP  RCUT    TYP  RCUT                                 
     0    -58.3859094     23  2.200                                             
     0     -3.9816262     23  2.200                                             
     1    -34.5140738     23  2.200                                             
     1     13.6058260     23  2.200                                             
     2     -3.0408010     23  2.200                                             
     2     -0.1283038     23  2.200                                             
     3     -1.3605826     23  2.400                                             
  local pseudopotential read in
  partial core-charges read in
  partial kinetic energy density read in
  atomic valenz-charges read in
  non local Contribution for L=           0  read in
    real space projection operators read in
  non local Contribution for L=           0  read in
    real space projection operators read in
  non local Contribution for L=           1  read in
    real space projection operators read in
  non local Contribution for L=           1  read in
    real space projection operators read in
  non local Contribution for L=           2  read in
    real space projection operators read in
  non local Contribution for L=           2  read in
    real space projection operators read in
    PAW grid and wavefunctions read in
 
   number of l-projection  operators is LMAX  =           6
   number of lm-projection operators is LMMAX =          18
 
 POTCAR:    PAW_PBE Cl 17Jan2003                  
   VRHFIN =Cl: s2p5                                                             
   LEXCH  = PE                                                                  
   EATOM  =   409.7259 eV,   30.1140 Ry                                         
                                                                                
   TITEL  = PAW_PBE Cl 17Jan2003                                                
   LULTRA =        F    use ultrasoft PP ?                                      
   IUNSCR =        1    unscreen: 0-lin 1-nonlin 2-no                           
   RPACOR =    1.500    partial core radius                                     
   POMASS =   35.453; ZVAL   =    7.000    mass and valenz                      
   RCORE  =    1.900    outmost cutoff radius                                   
   RWIGS  =    2.100; RWIGS  =    1.111    wigner-seitz radius (au A)           
   ENMAX  =  280.000; ENMIN  =  196.854 eV                                      
   ICORE  =        2    local potential                                         
   LCOR   =        T    correct aug charges                                     
   LPAW   =        T    paw PP                                                  
   EAUG   =  356.192                                                            
   DEXC   =     .000                                                            
   RMAX   =    2.846    core radius for proj-oper                               
   RAUG   =    1.300    factor for augmentation sphere                          
   RDEP   =    2.020    radius for radial grids                                 
   QCUT   =   -4.392; QGAM   =    8.784    optimization parameters              
                                                                                
   Description                                                                  
     l     E      TYP  RCUT    TYP  RCUT                                        
     0   .000     23  1.900                                                     
     0   .000     23  1.900                                                     
     1   .000     23  1.900                                                     
     1   .000     23  1.900                                                     
     2   .000     23  1.900                                                     
  local pseudopotential read in
  partial core-charges read in
  atomic valenz-charges read in
  non local Contribution for L=           0  read in
    real space projection operators read in
  non local Contribution for L=           0  read in
    real space projection operators read in
  non local Contribution for L=           1  read in
    real space projection operators read in
  non local Contribution for L=           1  read in
    real space projection operators read in
    PAW grid and wavefunctions read in
 
   number of l-projection  operators is LMAX  =           4
   number of lm-projection operators is LMMAX =           8
 
  PAW_PBE Nb_sv 25May2007               :
 energy of atom  1       EATOM=-1555.1913
 kinetic energy error for atom=    0.0711 (will be added to EATOM!!)
  PAW_PBE Cl 17Jan2003                  :
 energy of atom  2       EATOM= -409.7259
 kinetic energy error for atom=    0.0170 (will be added to EATOM!!)
 
 
 POSCAR: O dimer in a box                        
  positions in direct lattice
  velocities in cartesian coordinates
  No initial velocities read in
 exchange correlation table for  LEXCH =        8
   RHO(1)=    0.500       N(1)  =     2000
   RHO(2)=  100.500       N(2)  =     4000
 


--------------------------------------------------------------------------------------------------------


 ion  position               nearest neighbor table
   1  0.000  0.047  0.055-   2 2.28   3 2.29   4 2.84
   2  0.000  0.955  0.222-   1 2.28
   3  0.000  0.210  0.956-   1 2.29
   4  0.210  0.000  0.956-   1 2.84
 
  LATTYP: Found a simple cubic cell.
 ALAT       =    12.0000000000
  
  Lattice vectors:
  
 A1 = (  12.0000000000,   0.0000000000,   0.0000000000)
 A2 = (   0.0000000000,  12.0000000000,   0.0000000000)
 A3 = (   0.0000000000,   0.0000000000,  12.0000000000)


Analysis of symmetry for initial positions (statically):
=====================================================================
 Subroutine PRICEL returns:
 Original cell was already a primitive cell.
 

 Routine SETGRP: Setting up the symmetry group for a 
 simple cubic supercell.


 Subroutine GETGRP returns: Found  1 space group operations
 (whereof  1 operations were pure point group operations)
 out of a pool of 48 trial point group operations.


The static configuration has the point symmetry C_1 .


Analysis of symmetry for dynamics (positions and initial velocities):
=====================================================================
 Subroutine PRICEL returns:
 Original cell was already a primitive cell.
 

 Routine SETGRP: Setting up the symmetry group for a 
 simple cubic supercell.


 Subroutine GETGRP returns: Found  1 space group operations
 (whereof  1 operations were pure point group operations)
 out of a pool of 48 trial point group operations.


The dynamic configuration has the point symmetry C_1 .


Analysis of constrained symmetry for selective dynamics:
=====================================================================
 Subroutine PRICEL returns:
 Original cell was already a primitive cell.
 

 Routine SETGRP: Setting up the symmetry group for a 
 simple cubic supercell.


 Subroutine GETGRP returns: Found  1 space group operations
 (whereof  1 operations were pure point group operations)
 out of a pool of 48 trial point group operations.


The constrained configuration has the point symmetry C_1 .


Analysis of structural, dynamic, and magnetic symmetry:
=====================================================================
 Subroutine PRICEL returns:
 Original cell was already a primitive cell.
 

 Routine SETGRP: Setting up the symmetry group for a 
 simple cubic supercell.


 Subroutine GETGRP returns: Found  1 space group operations
 (whereof  1 operations were pure point group operations)
 out of a pool of 48 trial point group operations.


The magnetic configuration has the point symmetry C_1 .


 Subroutine INISYM returns: Found  1 space group operations
 (whereof  1 operations are pure point group operations),
 and found     1 'primitive' translations

 
 
 KPOINTS: Gamma-point only                        

Automatic generation of k-mesh.
Space group operators:
 irot       det(A)        alpha          n_x          n_y          n_z        tau_x        tau_y        tau_z
    1     1.000000     0.000000     1.000000     0.000000     0.000000     0.000000     0.000000     0.000000
 
 Subroutine IBZKPT returns following result:
 ===========================================
 
 Found     32 irreducible k-points:
 
 Following reciprocal coordinates:
            Coordinates               Weight
  0.125000  0.125000  0.125000      2.000000
  0.375000  0.125000  0.125000      2.000000
 -0.375000  0.125000  0.125000      2.000000
 -0.125000  0.125000  0.125000      2.000000
  0.125000  0.375000  0.125000      2.000000
  0.375000  0.375000  0.125000      2.000000
 -0.375000  0.375000  0.125000      2.000000
 -0.125000  0.375000  0.125000      2.000000
  0.125000 -0.375000  0.125000      2.000000
  0.375000 -0.375000  0.125000      2.000000
 -0.375000 -0.375000  0.125000      2.000000
 -0.125000 -0.375000  0.125000      2.000000
  0.125000 -0.125000  0.125000      2.000000
  0.375000 -0.125000  0.125000      2.000000
 -0.375000 -0.125000  0.125000      2.000000
 -0.125000 -0.125000  0.125000      2.000000
  0.125000  0.125000  0.375000      2.000000
  0.375000  0.125000  0.375000      2.000000
 -0.375000  0.125000  0.375000      2.000000
 -0.125000  0.125000  0.375000      2.000000
  0.125000  0.375000  0.375000      2.000000
  0.375000  0.375000  0.375000      2.000000
 -0.375000  0.375000  0.375000      2.000000
 -0.125000  0.375000  0.375000      2.000000
  0.125000 -0.375000  0.375000      2.000000
  0.375000 -0.375000  0.375000      2.000000
 -0.375000 -0.375000  0.375000      2.000000
 -0.125000 -0.375000  0.375000      2.000000
  0.125000 -0.125000  0.375000      2.000000
  0.375000 -0.125000  0.375000      2.000000
 -0.375000 -0.125000  0.375000      2.000000
 -0.125000 -0.125000  0.375000      2.000000
 
 Following cartesian coordinates:
            Coordinates               Weight
  0.010417  0.010417  0.010417      2.000000
  0.031250  0.010417  0.010417      2.000000
 -0.031250  0.010417  0.010417      2.000000
 -0.010417  0.010417  0.010417      2.000000
  0.010417  0.031250  0.010417      2.000000
  0.031250  0.031250  0.010417      2.000000
 -0.031250  0.031250  0.010417      2.000000
 -0.010417  0.031250  0.010417      2.000000
  0.010417 -0.031250  0.010417      2.000000
  0.031250 -0.031250  0.010417      2.000000
 -0.031250 -0.031250  0.010417      2.000000
 -0.010417 -0.031250  0.010417      2.000000
  0.010417 -0.010417  0.010417      2.000000
  0.031250 -0.010417  0.010417      2.000000
 -0.031250 -0.010417  0.010417      2.000000
 -0.010417 -0.010417  0.010417      2.000000
  0.010417  0.010417  0.031250      2.000000
  0.031250  0.010417  0.031250      2.000000
 -0.031250  0.010417  0.031250      2.000000
 -0.010417  0.010417  0.031250      2.000000
  0.010417  0.031250  0.031250      2.000000
  0.031250  0.031250  0.031250      2.000000
 -0.031250  0.031250  0.031250      2.000000
 -0.010417  0.031250  0.031250      2.000000
  0.010417 -0.031250  0.031250      2.000000
  0.031250 -0.031250  0.031250      2.000000
 -0.031250 -0.031250  0.031250      2.000000
 -0.010417 -0.031250  0.031250      2.000000
  0.010417 -0.010417  0.031250      2.000000
  0.031250 -0.010417  0.031250      2.000000
 -0.031250 -0.010417  0.031250      2.000000
 -0.010417 -0.010417  0.031250      2.000000
 


--------------------------------------------------------------------------------------------------------




 Dimension of arrays:
   k-points           NKPTS =     32   k-points in BZ     NKDIM =     32   number of bands    NBANDS=     32
   number of dos      NEDOS =    301   number of ions     NIONS =      4
   non local maximal  LDIM  =      6   non local SUM 2l+1 LMDIM =     18
   total plane-waves  NPLWV = 125000
   max r-space proj   IRMAX =      1   max aug-charges    IRDMAX=   3263
   dimension x,y,z NGX =    50 NGY =   50 NGZ =   50
   dimension x,y,z NGXF=   100 NGYF=  100 NGZF=  100
   support grid    NGXF=   100 NGYF=  100 NGZF=  100
   ions per type =               1   3
   NGX,Y,Z   is equivalent  to a cutoff of   6.93,  6.93,  6.93 a.u.
   NGXF,Y,Z  is equivalent  to a cutoff of  13.85, 13.85, 13.85 a.u.

 SYSTEM =  Te                                      
 POSCAR =  O dimer in a box                        

 Startparameter for this run:
   NWRITE =      2    write-flag & timer
   PREC   = normal    normal or accurate (medium, high low for compatibility)
   ISTART =      0    job   : 0-new  1-cont  2-samecut
   ICHARG =      2    charge: 1-file 2-atom 10-const
   ISPIN  =      2    spin polarized calculation?
   LNONCOLLINEAR =      F non collinear calculations
   LSORBIT =      F    spin-orbit coupling
   INIWAV =      1    electr: 0-lowe 1-rand  2-diag
   LASPH  =      F    aspherical Exc in radial PAW
   METAGGA=      F    non-selfconsistent MetaGGA calc.

 Electronic Relaxation 1
   ENCUT  =  293.2 eV  21.55 Ry    4.64 a.u.  16.76 16.76 16.76*2*pi/ulx,y,z
   ENINI  =  293.2     initial cutoff
   ENAUG  =  455.7 eV  augmentation charge cutoff
   NELM   =     60;   NELMIN=  2; NELMDL= -5     # of ELM steps 
   EDIFF  = 0.1E-03   stopping-criterion for ELM
   LREAL  =      F    real-space projection
   NLSPLINE    = F    spline interpolate recip. space projectors
   LCOMPAT=      F    compatible to vasp.4.4
   GGA_COMPAT  = T    GGA compatible to vasp.4.4-vasp.4.6
   LMAXPAW     = -100 max onsite density
   LMAXMIX     =    2 max onsite mixed and CHGCAR
   VOSKOWN=      0    Vosko Wilk Nusair interpolation
   ROPT   =    0.00000   0.00000
 Ionic relaxation
   EDIFFG = 0.1E-02   stopping-criterion for IOM
   NSW    =    100    number of steps for IOM
   NBLOCK =      1;   KBLOCK =    100    inner block; outer block 
   IBRION =      2    ionic relax: 0-MD 1-quasi-New 2-CG
   NFREE  =      1    steps in history (QN), initial steepest desc. (CG)
   ISIF   =      2    stress and relaxation
   IWAVPR =     11    prediction:  0-non 1-charg 2-wave 3-comb
   ISYM   =      2    0-nonsym 1-usesym 2-fastsym
   LCORR  =      T    Harris-Foulkes like correction to forces

   POTIM  = 0.5000    time-step for ionic-motion
   TEIN   =    0.0    initial temperature
   TEBEG  =    0.0;   TEEND  =   0.0 temperature during run
   SMASS  =  -3.00    Nose mass-parameter (am)
   estimated Nose-frequenzy (Omega)   =  0.10E-29 period in steps =****** mass=  -0.329E-26a.u.
   SCALEE = 1.0000    scale energy and forces
   NPACO  =    256;   APACO  = 16.0  distance and # of slots for P.C.
   PSTRESS=    0.0 pullay stress

  Mass of Ions in am
   POMASS =  92.91 35.45
  Ionic Valenz
   ZVAL   =  13.00  7.00
  Atomic Wigner-Seitz radii
   RWIGS  =  -1.00 -1.00
  virtual crystal weights 
   VCA    =   1.00  1.00
   NELECT =      34.0000    total number of electrons
   NUPDOWN=      -1.0000    fix difference up-down

 DOS related values:
   EMIN   =  10.00;   EMAX   =-10.00  energy-range for DOS
   EFERMI =   0.00
   ISMEAR =     0;   SIGMA  =   0.20  broadening in eV -4-tet -1-fermi 0-gaus

 Electronic relaxation 2 (details)
   IALGO  =     38    algorithm
   LDIAG  =      T    sub-space diagonalisation (order eigenvalues)
   LSUBROT=      F    optimize rotation matrix (better conditioning)
   TURBO    =      0    0=normal 1=particle mesh
   IRESTART =      0    0=no restart 2=restart with 2 vectors
   NREBOOT  =      0    no. of reboots
   NMIN     =      0    reboot dimension
   EREF     =   0.00    reference energy to select bands
   IMIX   =      4    mixing-type and parameters
     AMIX     =   0.40;   BMIX     =  1.00
     AMIX_MAG =   1.60;   BMIX_MAG =  1.00
     AMIN     =   0.10
     WC   =   100.;   INIMIX=   1;  MIXPRE=   1;  MAXMIX= -45

 Intra band minimization:
   WEIMIN = 0.0010     energy-eigenvalue tresh-hold
   EBREAK =  0.78E-06  absolut break condition
   DEPER  =   0.30     relativ break condition  

   TIME   =   0.40     timestep for ELM

  volume/ion in A,a.u.               =     432.00      2915.28
  Fermi-wavevector in a.u.,A,eV,Ry     =   0.441964  0.835190  2.657651  0.195332
  Thomas-Fermi vector in A             =   1.417579
 
 Write flags
   LWAVE        =      T    write WAVECAR
   LDOWNSAMPLE  =      F    k-point downsampling of WAVECAR
   LCHARG       =      T    write CHGCAR
   LVTOT        =      F    write LOCPOT, total local potential
   LVHAR        =      F    write LOCPOT, Hartree potential only
   LELF         =      F    write electronic localiz. function (ELF)
   LORBIT       =      0    0 simple, 1 ext, 2 COOP (PROOUT), +10 PAW based schemes


 Dipole corrections
   LMONO  =      F    monopole corrections only (constant potential shift)
   LDIPOL =      F    correct potential (dipole corrections)
   IDIPOL =      0    1-x, 2-y, 3-z, 4-all directions 
   EPSILON=  1.0000000 bulk dielectric constant

 Exchange correlation treatment:
   GGA     =    --    GGA type
   LEXCH   =     8    internal setting for exchange type
   VOSKOWN=      0    Vosko Wilk Nusair interpolation
   LHFCALC =     F    Hartree Fock is set to
   LHFONE  =     F    Hartree Fock one center treatment
   AEXX    =    0.0000 exact exchange contribution

 Linear response parameters
   LEPSILON=     F    determine dielectric tensor
   LRPA    =     F    only Hartree local field effects (RPA)
   LNABLA  =     F    use nabla operator in PAW spheres
   LVEL    =     F    velocity operator in full k-point grid
   LINTERFAST=   F  fast interpolation
   KINTER  =     0    interpolate to denser k-point grid
   CSHIFT  =0.1000    complex shift for real part using Kramers Kronig
   OMEGAMAX=  -1.0    maximum frequency
   DEG_THRESHOLD= 0.2000000E-02 threshold for treating states as degnerate
   RTIME   =   -0.100 relaxation time in fs
  (WPLASMAI=    0.000 imaginary part of plasma frequency in eV, 0.658/RTIME)
   DFIELD  = 0.0000000 0.0000000 0.0000000 field for delta impulse in time
 
 Orbital magnetization related:
   ORBITALMAG=     F  switch on orbital magnetization
   LCHIMAG   =     F  perturbation theory with respect to B field
   DQ        =  0.001000  dq finite difference perturbation B field
   LLRAUG    =     F  two centre corrections for induced B field



--------------------------------------------------------------------------------------------------------


 conjugate gradient relaxation of ions
   using selective dynamics as specified on POSCAR
 charge density and potential will be updated during run
 spin polarized calculation
 Variant of blocked Davidson
 Davidson routine will perform the subspace rotation
 perform sub-space diagonalisation
    after iterative eigenvector-optimisation
 modified Broyden-mixing scheme, WC =      100.0
 initial mixing is a Kerker type mixing with AMIX =  0.4000 and BMIX =      1.0000
 Hartree-type preconditioning will be used
 using additional bands           15
 reciprocal scheme for non local part
 use partial core corrections
 calculate Harris-corrections to forces 
   (improved forces if not selfconsistent)
 use gradient corrections 
 use of overlap-Matrix (Vanderbilt PP)
 Gauss-broadening in eV      SIGMA  =   0.20


--------------------------------------------------------------------------------------------------------


  energy-cutoff  :      293.24
  volume of cell :     1728.00
      direct lattice vectors                 reciprocal lattice vectors
    12.000000000  0.000000000  0.000000000     0.083333333  0.000000000  0.000000000
     0.000000000 12.000000000  0.000000000     0.000000000  0.083333333  0.000000000
     0.000000000  0.000000000 12.000000000     0.000000000  0.000000000  0.083333333

  length of vectors
    12.000000000 12.000000000 12.000000000     0.083333333  0.083333333  0.083333333


 
 k-points in units of 2pi/SCALE and weight: Gamma-point only                        
   0.01041667  0.01041667  0.01041667       0.031
   0.03125000  0.01041667  0.01041667       0.031
  -0.03125000  0.01041667  0.01041667       0.031
  -0.01041667  0.01041667  0.01041667       0.031
   0.01041667  0.03125000  0.01041667       0.031
   0.03125000  0.03125000  0.01041667       0.031
  -0.03125000  0.03125000  0.01041667       0.031
  -0.01041667  0.03125000  0.01041667       0.031
   0.01041667 -0.03125000  0.01041667       0.031
   0.03125000 -0.03125000  0.01041667       0.031
  -0.03125000 -0.03125000  0.01041667       0.031
  -0.01041667 -0.03125000  0.01041667       0.031
   0.01041667 -0.01041667  0.01041667       0.031
   0.03125000 -0.01041667  0.01041667       0.031
  -0.03125000 -0.01041667  0.01041667       0.031
  -0.01041667 -0.01041667  0.01041667       0.031
   0.01041667  0.01041667  0.03125000       0.031
   0.03125000  0.01041667  0.03125000       0.031
  -0.03125000  0.01041667  0.03125000       0.031
  -0.01041667  0.01041667  0.03125000       0.031
   0.01041667  0.03125000  0.03125000       0.031
   0.03125000  0.03125000  0.03125000       0.031
  -0.03125000  0.03125000  0.03125000       0.031
  -0.01041667  0.03125000  0.03125000       0.031
   0.01041667 -0.03125000  0.03125000       0.031
   0.03125000 -0.03125000  0.03125000       0.031
  -0.03125000 -0.03125000  0.03125000       0.031
  -0.01041667 -0.03125000  0.03125000       0.031
   0.01041667 -0.01041667  0.03125000       0.031
   0.03125000 -0.01041667  0.03125000       0.031
  -0.03125000 -0.01041667  0.03125000       0.031
  -0.01041667 -0.01041667  0.03125000       0.031
 
 k-points in reciprocal lattice and weights: Gamma-point only                        
   0.12500000  0.12500000  0.12500000       0.031
   0.37500000  0.12500000  0.12500000       0.031
  -0.37500000  0.12500000  0.12500000       0.031
  -0.12500000  0.12500000  0.12500000       0.031
   0.12500000  0.37500000  0.12500000       0.031
   0.37500000  0.37500000  0.12500000       0.031
  -0.37500000  0.37500000  0.12500000       0.031
  -0.12500000  0.37500000  0.12500000       0.031
   0.12500000 -0.37500000  0.12500000       0.031
   0.37500000 -0.37500000  0.12500000       0.031
  -0.37500000 -0.37500000  0.12500000       0.031
  -0.12500000 -0.37500000  0.12500000       0.031
   0.12500000 -0.12500000  0.12500000       0.031
   0.37500000 -0.12500000  0.12500000       0.031
  -0.37500000 -0.12500000  0.12500000       0.031
  -0.12500000 -0.12500000  0.12500000       0.031
   0.12500000  0.12500000  0.37500000       0.031
   0.37500000  0.12500000  0.37500000       0.031
  -0.37500000  0.12500000  0.37500000       0.031
  -0.12500000  0.12500000  0.37500000       0.031
   0.12500000  0.37500000  0.37500000       0.031
   0.37500000  0.37500000  0.37500000       0.031
  -0.37500000  0.37500000  0.37500000       0.031
  -0.12500000  0.37500000  0.37500000       0.031
   0.12500000 -0.37500000  0.37500000       0.031
   0.37500000 -0.37500000  0.37500000       0.031
  -0.37500000 -0.37500000  0.37500000       0.031
  -0.12500000 -0.37500000  0.37500000       0.031
   0.12500000 -0.12500000  0.37500000       0.031
   0.37500000 -0.12500000  0.37500000       0.031
  -0.37500000 -0.12500000  0.37500000       0.031
  -0.12500000 -0.12500000  0.37500000       0.031
 
 position of ions in fractional coordinates (direct lattice) 
   0.00000000  0.04713473  0.05544204
   0.00000000  0.95523588  0.22220112
   0.00000000  0.20980860  0.95629428
   0.20980860  0.00000000  0.95629428
 
 position of ions in cartesian coordinates  (Angst):
   0.00000000  0.56561678  0.66530444
   0.00000000 11.46283057  2.66641346
   0.00000000  2.51770319 11.47553131
   2.51770319  0.00000000 11.47553131
 


--------------------------------------------------------------------------------------------------------


 k-point  1 :   0.1250 0.1250 0.1250  plane waves:   19717
 k-point  2 :   0.3750 0.1250 0.1250  plane waves:   19713
 k-point  3 :  -0.3750 0.1250 0.1250  plane waves:   19713
 k-point  4 :  -0.1250 0.1250 0.1250  plane waves:   19717
 k-point  5 :   0.1250 0.3750 0.1250  plane waves:   19713
 k-point  6 :   0.3750 0.3750 0.1250  plane waves:   19693
 k-point  7 :  -0.3750 0.3750 0.1250  plane waves:   19693
 k-point  8 :  -0.1250 0.3750 0.1250  plane waves:   19713
 k-point  9 :   0.1250-0.3750 0.1250  plane waves:   19713
 k-point 10 :   0.3750-0.3750 0.1250  plane waves:   19693
 k-point 11 :  -0.3750-0.3750 0.1250  plane waves:   19693
 k-point 12 :  -0.1250-0.3750 0.1250  plane waves:   19713
 k-point 13 :   0.1250-0.1250 0.1250  plane waves:   19717
 k-point 14 :   0.3750-0.1250 0.1250  plane waves:   19713
 k-point 15 :  -0.3750-0.1250 0.1250  plane waves:   19713
 k-point 16 :  -0.1250-0.1250 0.1250  plane waves:   19717
 k-point 17 :   0.1250 0.1250 0.3750  plane waves:   19713
 k-point 18 :   0.3750 0.1250 0.3750  plane waves:   19693
 k-point 19 :  -0.3750 0.1250 0.3750  plane waves:   19693
 k-point 20 :  -0.1250 0.1250 0.3750  plane waves:   19713
 k-point 21 :   0.1250 0.3750 0.3750  plane waves:   19693
 k-point 22 :   0.3750 0.3750 0.3750  plane waves:   19730
 k-point 23 :  -0.3750 0.3750 0.3750  plane waves:   19730
 k-point 24 :  -0.1250 0.3750 0.3750  plane waves:   19693
 k-point 25 :   0.1250-0.3750 0.3750  plane waves:   19693
 k-point 26 :   0.3750-0.3750 0.3750  plane waves:   19730
 k-point 27 :  -0.3750-0.3750 0.3750  plane waves:   19730
 k-point 28 :  -0.1250-0.3750 0.3750  plane waves:   19693
 k-point 29 :   0.1250-0.1250 0.3750  plane waves:   19713
 k-point 30 :   0.3750-0.1250 0.3750  plane waves:   19693
 k-point 31 :  -0.3750-0.1250 0.3750  plane waves:   19693
 k-point 32 :  -0.1250-0.1250 0.3750  plane waves:   19713

 maximum and minimum number of plane-waves per node :     19730    19693

 maximum number of plane-waves:     19730
 maximum index in each direction: 
   IXMAX=   17   IYMAX=   17   IZMAX=   16
   IXMIN=  -17   IYMIN=  -17   IZMIN=  -17


 serial   3D FFT for wavefunctions
 parallel 3D FFT for charge:
    minimum data exchange during FFTs selected (reduces bandwidth)


 total amount of memory used by VASP MPI-rank0   272515. kBytes
=======================================================================

   base      :      30000. kBytes
   nonl-proj :     183224. kBytes
   fftplans  :       2864. kBytes
   grid      :      15769. kBytes
   one-center:        124. kBytes
   wavefun   :      40534. kBytes
 
     INWAV:  cpu time    0.0001: real time    0.0001
 Broyden mixing: mesh for mixing (old mesh)
   NGX = 33   NGY = 33   NGZ = 33
  (NGX  =100   NGY  =100   NGZ  =100)
  gives a total of  35937 points

 initial charge density was supplied:
 charge density of overlapping atoms calculated
 number of electron      34.0000000 magnetization       4.0000000
 keeping initial charge density in first step


--------------------------------------------------------------------------------------------------------


 Maximum index for augmentation-charges          453 (set IRDMAX)


--------------------------------------------------------------------------------------------------------


 First call to EWALD:  gamma=   0.148
 Maximum number of real-space cells 3x 3x 3
 Maximum number of reciprocal cells 3x 3x 3

    FEWALD:  cpu time    0.0011: real time    0.0015


--------------------------------------- Iteration      1(   1)  ---------------------------------------


    POTLOK:  cpu time    0.0644: real time    0.0685
    SETDIJ:  cpu time    0.0039: real time    0.0040
     EDDAV:  cpu time    4.0828: real time    4.1280
       DOS:  cpu time    0.0009: real time    0.0009
    --------------------------------------------
      LOOP:  cpu time    4.1520: real time    4.2013

 eigenvalue-minimisations  :  6144
 total energy-change (2. order) : 0.1432634E+03  (-0.9142518E+03)
 number of electron      34.0000000 magnetization       4.0000000
 augmentation part       34.0000000 magnetization       4.0000000

 Free energy of the ion-electron system (eV)
  ---------------------------------------------------
  alpha Z        PSCENC =         4.03694953
  Ewald energy   TEWEN  =       239.49466125
  -Hartree energ DENC   =     -2562.85460029
  -exchange      EXHF   =         0.00000000
  -V(xc)+E(xc)   XCENC  =       114.21271094
  PAW double counting   =      1829.00787815    -1810.27192321
  entropy T*S    EENTRO =        -0.06735322
  eigenvalues    EBANDS =      -454.54167508
  atomic energy  EATOM  =      2784.24678469
  Solvation  Ediel_sol  =         0.00000000
  ---------------------------------------------------
  free energy    TOTEN  =       143.26343276 eV

  energy without entropy =      143.33078598  energy(sigma->0) =      143.29710937


--------------------------------------------------------------------------------------------------------




--------------------------------------- Iteration      1(   2)  ---------------------------------------


     EDDAV:  cpu time    4.8840: real time    4.9051
       DOS:  cpu time    0.0008: real time    0.0008
    --------------------------------------------
      LOOP:  cpu time    4.8848: real time    4.9058

 eigenvalue-minimisations  :  7664
 total energy-change (2. order) :-0.1423751E+03  (-0.1382735E+03)
 number of electron      34.0000000 magnetization       4.0000000
 augmentation part       34.0000000 magnetization       4.0000000

 Free energy of the ion-electron system (eV)
  ---------------------------------------------------
  alpha Z        PSCENC =         4.03694953
  Ewald energy   TEWEN  =       239.49466125
  -Hartree energ DENC   =     -2562.85460029
  -exchange      EXHF   =         0.00000000
  -V(xc)+E(xc)   XCENC  =       114.21271094
  PAW double counting   =      1829.00787815    -1810.27192321
  entropy T*S    EENTRO =        -0.00336015
  eigenvalues    EBANDS =      -596.98076582
  atomic energy  EATOM  =      2784.24678469
  Solvation  Ediel_sol  =         0.00000000
  ---------------------------------------------------
  free energy    TOTEN  =         0.88833509 eV

  energy without entropy =        0.89169524  energy(sigma->0) =        0.89001517


--------------------------------------------------------------------------------------------------------




--------------------------------------- Iteration      1(   3)  ---------------------------------------


     EDDAV:  cpu time    4.0198: real time    4.0363
       DOS:  cpu time    0.0008: real time    0.0008
    --------------------------------------------
      LOOP:  cpu time    4.0206: real time    4.0370

 eigenvalue-minimisations  :  6144
 total energy-change (2. order) :-0.1861571E+02  (-0.1836523E+02)
 number of electron      34.0000000 magnetization       4.0000000
 augmentation part       34.0000000 magnetization       4.0000000

 Free energy of the ion-electron system (eV)
  ---------------------------------------------------
  alpha Z        PSCENC =         4.03694953
  Ewald energy   TEWEN  =       239.49466125
  -Hartree energ DENC   =     -2562.85460029
  -exchange      EXHF   =         0.00000000
  -V(xc)+E(xc)   XCENC  =       114.21271094
  PAW double counting   =      1829.00787815    -1810.27192321
  entropy T*S    EENTRO =        -0.11911841
  eigenvalues    EBANDS =      -615.48072236
  atomic energy  EATOM  =      2784.24678469
  Solvation  Ediel_sol  =         0.00000000
  ---------------------------------------------------
  free energy    TOTEN  =       -17.72737971 eV

  energy without entropy =      -17.60826130  energy(sigma->0) =      -17.66782051


--------------------------------------------------------------------------------------------------------




--------------------------------------- Iteration      1(   4)  ---------------------------------------


     EDDAV:  cpu time    3.8489: real time    3.8643
       DOS:  cpu time    0.0008: real time    0.0008
    --------------------------------------------
      LOOP:  cpu time    3.8497: real time    3.8651

 eigenvalue-minimisations  :  5888
 total energy-change (2. order) :-0.9674530E+00  (-0.9447317E+00)
 number of electron      34.0000000 magnetization       4.0000000
 augmentation part       34.0000000 magnetization       4.0000000

 Free energy of the ion-electron system (eV)
  ---------------------------------------------------
  alpha Z        PSCENC =         4.03694953
  Ewald energy   TEWEN  =       239.49466125
  -Hartree energ DENC   =     -2562.85460029
  -exchange      EXHF   =         0.00000000
  -V(xc)+E(xc)   XCENC  =       114.21271094
  PAW double counting   =      1829.00787815    -1810.27192321
  entropy T*S    EENTRO =        -0.15552547
  eigenvalues    EBANDS =      -616.41176835
  atomic energy  EATOM  =      2784.24678469
  Solvation  Ediel_sol  =         0.00000000
  ---------------------------------------------------
  free energy    TOTEN  =       -18.69483276 eV

  energy without entropy =      -18.53930729  energy(sigma->0) =      -18.61707002


--------------------------------------------------------------------------------------------------------




--------------------------------------- Iteration      1(   5)  ---------------------------------------


     EDDAV:  cpu time    3.5441: real time    3.5576
       DOS:  cpu time    0.0007: real time    0.0007
    CHARGE:  cpu time    0.2026: real time    0.2049
    MIXING:  cpu time    0.0014: real time    0.0014
    --------------------------------------------
      LOOP:  cpu time    3.7487: real time    3.7646

 eigenvalue-minimisations  :  5360
 total energy-change (2. order) :-0.2038608E-01  (-0.1978258E-01)
 number of electron      34.0000079 magnetization       3.1323512
 augmentation part       -1.7377681 magnetization       1.6695490

 Broyden mixing:
  rms(total) = 0.96694E+00    rms(broyden)= 0.96530E+00
  rms(prec ) = 0.12710E+01
  weight for this iteration     100.00

 Free energy of the ion-electron system (eV)
  ---------------------------------------------------
  alpha Z        PSCENC =         4.03694953
  Ewald energy   TEWEN  =       239.49466125
  -Hartree energ DENC   =     -2562.85460029
  -exchange      EXHF   =         0.00000000
  -V(xc)+E(xc)   XCENC  =       114.21271094
  PAW double counting   =      1829.00787815    -1810.27192321
  entropy T*S    EENTRO =        -0.15899601
  eigenvalues    EBANDS =      -616.42868389
  atomic energy  EATOM  =      2784.24678469
  Solvation  Ediel_sol  =         0.00000000
  ---------------------------------------------------
  free energy    TOTEN  =       -18.71521884 eV

  energy without entropy =      -18.55622283  energy(sigma->0) =      -18.63572083


--------------------------------------------------------------------------------------------------------




--------------------------------------- Iteration      1(   6)  ---------------------------------------


    POTLOK:  cpu time    0.0600: real time    0.0605
    SETDIJ:  cpu time    0.0043: real time    0.0045
     EDDAV:  cpu time    3.4025: real time    3.4171
       DOS:  cpu time    0.0007: real time    0.0007
    CHARGE:  cpu time    0.1999: real time    0.2008
    MIXING:  cpu time    0.0018: real time    0.0063
    --------------------------------------------
      LOOP:  cpu time    3.6692: real time    3.6899

 eigenvalue-minimisations  :  5104
 total energy-change (2. order) : 0.4860463E+01  (-0.1496915E+01)
 number of electron      34.0000077 magnetization       2.8159196
 augmentation part       -1.3637101 magnetization       0.9493835

 Broyden mixing:
  rms(total) = 0.49345E+00    rms(broyden)= 0.49255E+00
  rms(prec ) = 0.56589E+00
  weight for this iteration     100.00

 eigenvalues of (default mixing * dielectric matrix)
  average eigenvalue GAMMA=   0.7361
  0.7361

 Free energy of the ion-electron system (eV)
  ---------------------------------------------------
  alpha Z        PSCENC =         4.03694953
  Ewald energy   TEWEN  =       239.49466125
  -Hartree energ DENC   =     -2543.82621049
  -exchange      EXHF   =         0.00000000
  -V(xc)+E(xc)   XCENC  =       116.70983813
  PAW double counting   =      1836.05296570    -1818.68567918
  entropy T*S    EENTRO =        -0.00285373
  eigenvalues    EBANDS =      -631.88121153
  atomic energy  EATOM  =      2784.24678469
  Solvation  Ediel_sol  =         0.00000000
  ---------------------------------------------------
  free energy    TOTEN  =       -13.85475563 eV

  energy without entropy =      -13.85190190  energy(sigma->0) =      -13.85332877


--------------------------------------------------------------------------------------------------------




--------------------------------------- Iteration      1(   7)  ---------------------------------------


    POTLOK:  cpu time    0.0596: real time    0.0600
    SETDIJ:  cpu time    0.0034: real time    0.0034
     EDDAV:  cpu time    3.4904: real time    3.5054
       DOS:  cpu time    0.0006: real time    0.0006
    CHARGE:  cpu time    0.1990: real time    0.2003
    MIXING:  cpu time    0.0014: real time    0.0021
    --------------------------------------------
      LOOP:  cpu time    3.7546: real time    3.7719

 eigenvalue-minimisations  :  5248
 total energy-change (2. order) :-0.1250367E+01  (-0.1256443E+00)
 number of electron      34.0000076 magnetization       2.4810778
 augmentation part       -1.4473865 magnetization       0.6323447

 Broyden mixing:
  rms(total) = 0.22552E+00    rms(broyden)= 0.22535E+00
  rms(prec ) = 0.27776E+00
  weight for this iteration     100.00

 eigenvalues of (default mixing * dielectric matrix)
  average eigenvalue GAMMA=   0.8976
  1.0136  0.7815

 Free energy of the ion-electron system (eV)
  ---------------------------------------------------
  alpha Z        PSCENC =         4.03694953
  Ewald energy   TEWEN  =       239.49466125
  -Hartree energ DENC   =     -2551.37288138
  -exchange      EXHF   =         0.00000000
  -V(xc)+E(xc)   XCENC  =       116.17784389
  PAW double counting   =      1869.80027374    -1852.24014458
  entropy T*S    EENTRO =        -0.00081652
  eigenvalues    EBANDS =      -625.24779300
  atomic energy  EATOM  =      2784.24678469
  Solvation  Ediel_sol  =         0.00000000
  ---------------------------------------------------
  free energy    TOTEN  =       -15.10512237 eV

  energy without entropy =      -15.10430585  energy(sigma->0) =      -15.10471411


--------------------------------------------------------------------------------------------------------




--------------------------------------- Iteration      1(   8)  ---------------------------------------


    POTLOK:  cpu time    0.0590: real time    0.0593
    SETDIJ:  cpu time    0.0035: real time    0.0035
     EDDAV:  cpu time    3.4996: real time    3.5157
       DOS:  cpu time    0.0007: real time    0.0007
    CHARGE:  cpu time    0.1995: real time    0.2003
    MIXING:  cpu time    0.0016: real time    0.0016
    --------------------------------------------
      LOOP:  cpu time    3.7638: real time    3.7811

 eigenvalue-minimisations  :  5264
 total energy-change (2. order) :-0.1031373E+01  (-0.6016129E-01)
 number of electron      34.0000076 magnetization       2.1872138
 augmentation part       -1.4641929 magnetization       0.3235393

 Broyden mixing:
  rms(total) = 0.12371E+00    rms(broyden)= 0.12355E+00
  rms(prec ) = 0.15396E+00
  weight for this iteration     100.00

 eigenvalues of (default mixing * dielectric matrix)
  average eigenvalue GAMMA=   1.0794
  0.7419  1.0351  1.4611

 Free energy of the ion-electron system (eV)
  ---------------------------------------------------
  alpha Z        PSCENC =         4.03694953
  Ewald energy   TEWEN  =       239.49466125
  -Hartree energ DENC   =     -2555.41913099
  -exchange      EXHF   =         0.00000000
  -V(xc)+E(xc)   XCENC  =       115.63320545
  PAW double counting   =      1897.64955403    -1879.88647022
  entropy T*S    EENTRO =        -0.00234222
  eigenvalues    EBANDS =      -621.88970669
  atomic energy  EATOM  =      2784.24678469
  Solvation  Ediel_sol  =         0.00000000
  ---------------------------------------------------
  free energy    TOTEN  =       -16.13649517 eV

  energy without entropy =      -16.13415295  energy(sigma->0) =      -16.13532406


--------------------------------------------------------------------------------------------------------




--------------------------------------- Iteration      1(   9)  ---------------------------------------


    POTLOK:  cpu time    0.0599: real time    0.0602
    SETDIJ:  cpu time    0.0033: real time    0.0033
     EDDAV:  cpu time    3.6614: real time    3.6750
       DOS:  cpu time    0.0007: real time    0.0007
    CHARGE:  cpu time    0.1989: real time    0.2004
    MIXING:  cpu time    0.0016: real time    0.0016
    --------------------------------------------
      LOOP:  cpu time    3.9258: real time    3.9411

 eigenvalue-minimisations  :  5536
 total energy-change (2. order) :-0.6933989E+00  (-0.1842153E-01)
 number of electron      34.0000076 magnetization       2.0831711
 augmentation part       -1.4731192 magnetization       0.2109934

 Broyden mixing:
  rms(total) = 0.56163E-01    rms(broyden)= 0.55940E-01
  rms(prec ) = 0.75499E-01
  weight for this iteration     100.00

 eigenvalues of (default mixing * dielectric matrix)
  average eigenvalue GAMMA=   1.1475
  2.0748  1.0044  0.8157  0.6952

 Free energy of the ion-electron system (eV)
  ---------------------------------------------------
  alpha Z        PSCENC =         4.03694953
  Ewald energy   TEWEN  =       239.49466125
  -Hartree energ DENC   =     -2556.94457768
  -exchange      EXHF   =         0.00000000
  -V(xc)+E(xc)   XCENC  =       115.10473257
  PAW double counting   =      1925.19117600    -1907.12363751
  entropy T*S    EENTRO =        -0.00337780
  eigenvalues    EBANDS =      -620.83260511
  atomic energy  EATOM  =      2784.24678469
  Solvation  Ediel_sol  =         0.00000000
  ---------------------------------------------------
  free energy    TOTEN  =       -16.82989406 eV

  energy without entropy =      -16.82651626  energy(sigma->0) =      -16.82820516


--------------------------------------------------------------------------------------------------------




--------------------------------------- Iteration      1(  10)  ---------------------------------------


    POTLOK:  cpu time    0.0591: real time    0.0594
    SETDIJ:  cpu time    0.0032: real time    0.0032
     EDDAV:  cpu time    3.9350: real time    3.9495
       DOS:  cpu time    0.0007: real time    0.0007
    CHARGE:  cpu time    0.1990: real time    0.1997
    MIXING:  cpu time    0.0018: real time    0.0018
    --------------------------------------------
      LOOP:  cpu time    4.1988: real time    4.2142

 eigenvalue-minimisations  :  6080
 total energy-change (2. order) :-0.1529474E+00  (-0.1714069E-02)
 number of electron      34.0000076 magnetization       2.0150460
 augmentation part       -1.4763331 magnetization       0.1408560

 Broyden mixing:
  rms(total) = 0.30102E-01    rms(broyden)= 0.30044E-01
  rms(prec ) = 0.47569E-01
  weight for this iteration     100.00

 eigenvalues of (default mixing * dielectric matrix)
  average eigenvalue GAMMA=   1.2246
  2.3865  1.2975  1.0302  0.7718  0.6370

 Free energy of the ion-electron system (eV)
  ---------------------------------------------------
  alpha Z        PSCENC =         4.03694953
  Ewald energy   TEWEN  =       239.49466125
  -Hartree energ DENC   =     -2556.80985662
  -exchange      EXHF   =         0.00000000
  -V(xc)+E(xc)   XCENC  =       114.95467371
  PAW double counting   =      1935.28020625    -1917.04906371
  entropy T*S    EENTRO =        -0.00350784
  eigenvalues    EBANDS =      -621.13368868
  atomic energy  EATOM  =      2784.24678469
  Solvation  Ediel_sol  =         0.00000000
  ---------------------------------------------------
  free energy    TOTEN  =       -16.98284142 eV

  energy without entropy =      -16.97933358  energy(sigma->0) =      -16.98108750


--------------------------------------------------------------------------------------------------------




--------------------------------------- Iteration      1(  11)  ---------------------------------------


    POTLOK:  cpu time    0.0589: real time    0.0593
    SETDIJ:  cpu time    0.0033: real time    0.0034
     EDDAV:  cpu time    3.5007: real time    3.5138
       DOS:  cpu time    0.0007: real time    0.0007
    CHARGE:  cpu time    0.1961: real time    0.1967
    MIXING:  cpu time    0.0018: real time    0.0025
    --------------------------------------------
      LOOP:  cpu time    3.7616: real time    3.7763

 eigenvalue-minimisations  :  5296
 total energy-change (2. order) :-0.6197461E-01  (-0.8339363E-03)
 number of electron      34.0000076 magnetization       1.9928552
 augmentation part       -1.4773853 magnetization       0.1184113

 Broyden mixing:
  rms(total) = 0.12427E-01    rms(broyden)= 0.12414E-01
  rms(prec ) = 0.27933E-01
  weight for this iteration     100.00

 eigenvalues of (default mixing * dielectric matrix)
  average eigenvalue GAMMA=   1.2630
  2.5155  1.7666  0.9662  0.9662  0.7270  0.6366

 Free energy of the ion-electron system (eV)
  ---------------------------------------------------
  alpha Z        PSCENC =         4.03694953
  Ewald energy   TEWEN  =       239.49466125
  -Hartree energ DENC   =     -2556.58691668
  -exchange      EXHF   =         0.00000000
  -V(xc)+E(xc)   XCENC  =       114.88733147
  PAW double counting   =      1942.09888115    -1923.75069357
  entropy T*S    EENTRO =        -0.00341564
  eigenvalues    EBANDS =      -621.46839823
  atomic energy  EATOM  =      2784.24678469
  Solvation  Ediel_sol  =         0.00000000
  ---------------------------------------------------
  free energy    TOTEN  =       -17.04481602 eV

  energy without entropy =      -17.04140039  energy(sigma->0) =      -17.04310821


--------------------------------------------------------------------------------------------------------




--------------------------------------- Iteration      1(  12)  ---------------------------------------


    POTLOK:  cpu time    0.0589: real time    0.0592
    SETDIJ:  cpu time    0.0032: real time    0.0033
     EDDAV:  cpu time    3.6537: real time    3.6686
       DOS:  cpu time    0.0007: real time    0.0007
    CHARGE:  cpu time    0.1977: real time    0.1984
    MIXING:  cpu time    0.0018: real time    0.0018
    --------------------------------------------
      LOOP:  cpu time    3.9160: real time    3.9320

 eigenvalue-minimisations  :  5584
 total energy-change (2. order) :-0.1157296E-01  (-0.2798966E-03)
 number of electron      34.0000076 magnetization       1.9885913
 augmentation part       -1.4778215 magnetization       0.1141752

 Broyden mixing:
  rms(total) = 0.78950E-02    rms(broyden)= 0.78866E-02
  rms(prec ) = 0.19404E-01
  weight for this iteration     100.00

 eigenvalues of (default mixing * dielectric matrix)
  average eigenvalue GAMMA=   1.2903
  2.6924  1.9558  1.0846  1.0846  0.8590  0.7325  0.6231

 Free energy of the ion-electron system (eV)
  ---------------------------------------------------
  alpha Z        PSCENC =         4.03694953
  Ewald energy   TEWEN  =       239.49466125
  -Hartree energ DENC   =     -2556.67300159
  -exchange      EXHF   =         0.00000000
  -V(xc)+E(xc)   XCENC  =       114.87274099
  PAW double counting   =      1944.53701234    -1926.14719901
  entropy T*S    EENTRO =        -0.00332892
  eigenvalues    EBANDS =      -621.42100827
  atomic energy  EATOM  =      2784.24678469
  Solvation  Ediel_sol  =         0.00000000
  ---------------------------------------------------
  free energy    TOTEN  =       -17.05638898 eV

  energy without entropy =      -17.05306007  energy(sigma->0) =      -17.05472453


--------------------------------------------------------------------------------------------------------




--------------------------------------- Iteration      1(  13)  ---------------------------------------


    POTLOK:  cpu time    0.0587: real time    0.0591
    SETDIJ:  cpu time    0.0032: real time    0.0032
     EDDAV:  cpu time    3.4068: real time    3.4210
       DOS:  cpu time    0.0006: real time    0.0006
    CHARGE:  cpu time    0.1976: real time    0.1988
    MIXING:  cpu time    0.0020: real time    0.0021
    --------------------------------------------
      LOOP:  cpu time    3.6690: real time    3.6848

 eigenvalue-minimisations  :  5120
 total energy-change (2. order) :-0.5515595E-02  (-0.1552755E-03)
 number of electron      34.0000076 magnetization       1.9897581
 augmentation part       -1.4789250 magnetization       0.1146458

 Broyden mixing:
  rms(total) = 0.49943E-02    rms(broyden)= 0.49881E-02
  rms(prec ) = 0.12271E-01
  weight for this iteration     100.00

 eigenvalues of (default mixing * dielectric matrix)
  average eigenvalue GAMMA=   1.3416
  2.8668  2.2803  1.2216  1.2216  1.0070  0.7574  0.7574  0.6205

 Free energy of the ion-electron system (eV)
  ---------------------------------------------------
  alpha Z        PSCENC =         4.03694953
  Ewald energy   TEWEN  =       239.49466125
  -Hartree energ DENC   =     -2556.85260574
  -exchange      EXHF   =         0.00000000
  -V(xc)+E(xc)   XCENC  =       114.86753414
  PAW double counting   =      1945.06329327    -1926.65798788
  entropy T*S    EENTRO =        -0.00331234
  eigenvalues    EBANDS =      -621.25722151
  atomic energy  EATOM  =      2784.24678469
  Solvation  Ediel_sol  =         0.00000000
  ---------------------------------------------------
  free energy    TOTEN  =       -17.06190458 eV

  energy without entropy =      -17.05859224  energy(sigma->0) =      -17.06024841


--------------------------------------------------------------------------------------------------------




--------------------------------------- Iteration      1(  14)  ---------------------------------------


    POTLOK:  cpu time    0.0589: real time    0.0592
    SETDIJ:  cpu time    0.0032: real time    0.0033
     EDDAV:  cpu time    3.6768: real time    3.6944
       DOS:  cpu time    0.0008: real time    0.0008
    CHARGE:  cpu time    0.1971: real time    0.1979
    MIXING:  cpu time    0.0022: real time    0.0022
    --------------------------------------------
      LOOP:  cpu time    3.9389: real time    3.9577

 eigenvalue-minimisations  :  5600
 total energy-change (2. order) :-0.4108688E-02  (-0.1194541E-03)
 number of electron      34.0000076 magnetization       1.9949349
 augmentation part       -1.4789062 magnetization       0.1192879

 Broyden mixing:
  rms(total) = 0.33415E-02    rms(broyden)= 0.33268E-02
  rms(prec ) = 0.72189E-02
  weight for this iteration     100.00

 eigenvalues of (default mixing * dielectric matrix)
  average eigenvalue GAMMA=   1.4033
  3.3841  2.4970  1.4115  1.4115  0.9359  0.9359  0.6180  0.7180  0.7180

 Free energy of the ion-electron system (eV)
  ---------------------------------------------------
  alpha Z        PSCENC =         4.03694953
  Ewald energy   TEWEN  =       239.49466125
  -Hartree energ DENC   =     -2556.89174636
  -exchange      EXHF   =         0.00000000
  -V(xc)+E(xc)   XCENC  =       114.86383191
  PAW double counting   =      1944.91583327    -1926.50819598
  entropy T*S    EENTRO =        -0.00334071
  eigenvalues    EBANDS =      -621.22079088
  atomic energy  EATOM  =      2784.24678469
  Solvation  Ediel_sol  =         0.00000000
  ---------------------------------------------------
  free energy    TOTEN  =       -17.06601327 eV

  energy without entropy =      -17.06267256  energy(sigma->0) =      -17.06434291


--------------------------------------------------------------------------------------------------------




--------------------------------------- Iteration      1(  15)  ---------------------------------------


    POTLOK:  cpu time    0.0588: real time    0.0591
    SETDIJ:  cpu time    0.0033: real time    0.0033
     EDDAV:  cpu time    3.5067: real time    3.5195
       DOS:  cpu time    0.0007: real time    0.0006
    CHARGE:  cpu time    0.1971: real time    0.1983
    MIXING:  cpu time    0.0025: real time    0.0025
    --------------------------------------------
      LOOP:  cpu time    3.7690: real time    3.7833

 eigenvalue-minimisations  :  5312
 total energy-change (2. order) :-0.2617972E-02  (-0.4958286E-04)
 number of electron      34.0000076 magnetization       1.9981766
 augmentation part       -1.4790359 magnetization       0.1225537

 Broyden mixing:
  rms(total) = 0.24693E-02    rms(broyden)= 0.24504E-02
  rms(prec ) = 0.49651E-02
  weight for this iteration     100.00

 eigenvalues of (default mixing * dielectric matrix)
  average eigenvalue GAMMA=   1.4590
  4.1073  2.5310  1.4977  1.4977  1.0485  1.0485  0.7821  0.7701  0.6197  0.6873

 Free energy of the ion-electron system (eV)
  ---------------------------------------------------
  alpha Z        PSCENC =         4.03694953
  Ewald energy   TEWEN  =       239.49466125
  -Hartree energ DENC   =     -2556.82691179
  -exchange      EXHF   =         0.00000000
  -V(xc)+E(xc)   XCENC  =       114.85685068
  PAW double counting   =      1944.44248392    -1926.03378548
  entropy T*S    EENTRO =        -0.00339333
  eigenvalues    EBANDS =      -621.28227071
  atomic energy  EATOM  =      2784.24678469
  Solvation  Ediel_sol  =         0.00000000
  ---------------------------------------------------
  free energy    TOTEN  =       -17.06863124 eV

  energy without entropy =      -17.06523790  energy(sigma->0) =      -17.06693457


--------------------------------------------------------------------------------------------------------




--------------------------------------- Iteration      1(  16)  ---------------------------------------


    POTLOK:  cpu time    0.0591: real time    0.0594
    SETDIJ:  cpu time    0.0032: real time    0.0033
     EDDAV:  cpu time    3.5525: real time    3.5657
       DOS:  cpu time    0.0007: real time    0.0007
    CHARGE:  cpu time    0.1976: real time    0.1982
    MIXING:  cpu time    0.0024: real time    0.0026
    --------------------------------------------
      LOOP:  cpu time    3.8155: real time    3.8299

 eigenvalue-minimisations  :  5376
 total energy-change (2. order) :-0.1418011E-02  (-0.1626128E-04)
 number of electron      34.0000076 magnetization       2.0008998
 augmentation part       -1.4792587 magnetization       0.1251903

 Broyden mixing:
  rms(total) = 0.15191E-02    rms(broyden)= 0.15143E-02
  rms(prec ) = 0.34210E-02
  weight for this iteration     100.00

 eigenvalues of (default mixing * dielectric matrix)
  average eigenvalue GAMMA=   1.5070
  4.7641  2.6101  1.6103  1.4248  1.1630  1.1630  1.0490  0.7617  0.7617  0.6186
  0.6512

 Free energy of the ion-electron system (eV)
  ---------------------------------------------------
  alpha Z        PSCENC =         4.03694953
  Ewald energy   TEWEN  =       239.49466125
  -Hartree energ DENC   =     -2556.78791934
  -exchange      EXHF   =         0.00000000
  -V(xc)+E(xc)   XCENC  =       114.85442368
  PAW double counting   =      1944.17046641    -1925.76094501
  entropy T*S    EENTRO =        -0.00338613
  eigenvalues    EBANDS =      -621.32108432
  atomic energy  EATOM  =      2784.24678469
  Solvation  Ediel_sol  =         0.00000000
  ---------------------------------------------------
  free energy    TOTEN  =       -17.07004925 eV

  energy without entropy =      -17.06666312  energy(sigma->0) =      -17.06835618


--------------------------------------------------------------------------------------------------------




--------------------------------------- Iteration      1(  17)  ---------------------------------------


    POTLOK:  cpu time    0.0586: real time    0.0589
    SETDIJ:  cpu time    0.0032: real time    0.0033
     EDDAV:  cpu time    3.7944: real time    3.8086
       DOS:  cpu time    0.0006: real time    0.0006
    CHARGE:  cpu time    0.1963: real time    0.1969
    MIXING:  cpu time    0.0023: real time    0.0023
    --------------------------------------------
      LOOP:  cpu time    4.0554: real time    4.0705

 eigenvalue-minimisations  :  5824
 total energy-change (2. order) :-0.8323633E-03  (-0.1691391E-04)
 number of electron      34.0000076 magnetization       2.0015349
 augmentation part       -1.4792892 magnetization       0.1258343

 Broyden mixing:
  rms(total) = 0.11158E-02    rms(broyden)= 0.11117E-02
  rms(prec ) = 0.22190E-02
  weight for this iteration     100.00

 eigenvalues of (default mixing * dielectric matrix)
  average eigenvalue GAMMA=   1.5518
  5.3517  2.6989  1.8553  1.4478  1.4478  1.1919  0.9471  0.9471  0.7387  0.7387
  0.6194  0.6371

 Free energy of the ion-electron system (eV)
  ---------------------------------------------------
  alpha Z        PSCENC =         4.03694953
  Ewald energy   TEWEN  =       239.49466125
  -Hartree energ DENC   =     -2556.75917191
  -exchange      EXHF   =         0.00000000
  -V(xc)+E(xc)   XCENC  =       114.85334878
  PAW double counting   =      1943.98092518    -1925.57162362
  entropy T*S    EENTRO =        -0.00337586
  eigenvalues    EBANDS =      -621.34937966
  atomic energy  EATOM  =      2784.24678469
  Solvation  Ediel_sol  =         0.00000000
  ---------------------------------------------------
  free energy    TOTEN  =       -17.07088161 eV

  energy without entropy =      -17.06750575  energy(sigma->0) =      -17.06919368


--------------------------------------------------------------------------------------------------------




--------------------------------------- Iteration      1(  18)  ---------------------------------------


    POTLOK:  cpu time    0.0580: real time    0.0583
    SETDIJ:  cpu time    0.0032: real time    0.0033
     EDDAV:  cpu time    3.3606: real time    3.3729
       DOS:  cpu time    0.0007: real time    0.0007
    CHARGE:  cpu time    0.1963: real time    0.1972
    MIXING:  cpu time    0.0025: real time    0.0025
    --------------------------------------------
      LOOP:  cpu time    3.6214: real time    3.6349

 eigenvalue-minimisations  :  4848
 total energy-change (2. order) :-0.3006117E-03  (-0.2135913E-05)
 number of electron      34.0000076 magnetization       2.0012444
 augmentation part       -1.4793060 magnetization       0.1255368

 Broyden mixing:
  rms(total) = 0.82994E-03    rms(broyden)= 0.82681E-03
  rms(prec ) = 0.16936E-02
  weight for this iteration     100.00

 eigenvalues of (default mixing * dielectric matrix)
  average eigenvalue GAMMA=   1.6120
  6.0646  2.8060  2.2441  1.3874  1.3874  1.3804  1.1384  0.9614  0.8615  0.7472
  0.7302  0.6164  0.6315

 Free energy of the ion-electron system (eV)
  ---------------------------------------------------
  alpha Z        PSCENC =         4.03694953
  Ewald energy   TEWEN  =       239.49466125
  -Hartree energ DENC   =     -2556.75142470
  -exchange      EXHF   =         0.00000000
  -V(xc)+E(xc)   XCENC  =       114.85261974
  PAW double counting   =      1943.97266591    -1925.56340061
  entropy T*S    EENTRO =        -0.00338619
  eigenvalues    EBANDS =      -621.35665185
  atomic energy  EATOM  =      2784.24678469
  Solvation  Ediel_sol  =         0.00000000
  ---------------------------------------------------
  free energy    TOTEN  =       -17.07118223 eV

  energy without entropy =      -17.06779603  energy(sigma->0) =      -17.06948913


--------------------------------------------------------------------------------------------------------




--------------------------------------- Iteration      1(  19)  ---------------------------------------


    POTLOK:  cpu time    0.0587: real time    0.0591
    SETDIJ:  cpu time    0.0033: real time    0.0034
     EDDAV:  cpu time    3.2038: real time    3.2160
       DOS:  cpu time    0.0006: real time    0.0006
    CHARGE:  cpu time    0.1975: real time    0.1982
    MIXING:  cpu time    0.0026: real time    0.0026
    --------------------------------------------
      LOOP:  cpu time    3.4666: real time    3.4799

 eigenvalue-minimisations  :  4592
 total energy-change (2. order) :-0.4783843E-03  (-0.3451659E-05)
 number of electron      34.0000076 magnetization       2.0007307
 augmentation part       -1.4793220 magnetization       0.1250457

 Broyden mixing:
  rms(total) = 0.50138E-03    rms(broyden)= 0.50026E-03
  rms(prec ) = 0.99560E-03
  weight for this iteration     100.00

 eigenvalues of (default mixing * dielectric matrix)
  average eigenvalue GAMMA=   1.6507
  6.5593  3.0442  2.4387  1.4277  1.4277  1.5488  1.1702  0.9966  0.9966  0.7785
  0.7785  0.7016  0.6257  0.6154

 Free energy of the ion-electron system (eV)
  ---------------------------------------------------
  alpha Z        PSCENC =         4.03694953
  Ewald energy   TEWEN  =       239.49466125
  -Hartree energ DENC   =     -2556.74128121
  -exchange      EXHF   =         0.00000000
  -V(xc)+E(xc)   XCENC  =       114.85203707
  PAW double counting   =      1944.05885817    -1925.64850752
  entropy T*S    EENTRO =        -0.00338619
  eigenvalues    EBANDS =      -621.36777640
  atomic energy  EATOM  =      2784.24678469
  Solvation  Ediel_sol  =         0.00000000
  ---------------------------------------------------
  free energy    TOTEN  =       -17.07166061 eV

  energy without entropy =      -17.06827442  energy(sigma->0) =      -17.06996751


--------------------------------------------------------------------------------------------------------




--------------------------------------- Iteration      1(  20)  ---------------------------------------


    POTLOK:  cpu time    0.0582: real time    0.0586
    SETDIJ:  cpu time    0.0032: real time    0.0032
     EDDAV:  cpu time    3.4294: real time    3.4420
       DOS:  cpu time    0.0008: real time    0.0008
    CHARGE:  cpu time    0.1962: real time    0.1969
    MIXING:  cpu time    0.0030: real time    0.0030
    --------------------------------------------
      LOOP:  cpu time    3.6909: real time    3.7045

 eigenvalue-minimisations  :  4976
 total energy-change (2. order) :-0.2779011E-03  (-0.1911748E-05)
 number of electron      34.0000076 magnetization       2.0003820
 augmentation part       -1.4793139 magnetization       0.1247070

 Broyden mixing:
  rms(total) = 0.39937E-03    rms(broyden)= 0.39847E-03
  rms(prec ) = 0.68121E-03
  weight for this iteration     100.00

 eigenvalues of (default mixing * dielectric matrix)
  average eigenvalue GAMMA=   1.6742
  6.9926  3.3601  2.5027  1.7361  1.4272  1.4272  1.1821  1.1821  0.9486  0.9066
  0.7649  0.7649  0.6838  0.6172  0.6172

 Free energy of the ion-electron system (eV)
  ---------------------------------------------------
  alpha Z        PSCENC =         4.03694953
  Ewald energy   TEWEN  =       239.49466125
  -Hartree energ DENC   =     -2556.73792923
  -exchange      EXHF   =         0.00000000
  -V(xc)+E(xc)   XCENC  =       114.85184032
  PAW double counting   =      1944.11963715    -1925.70884502
  entropy T*S    EENTRO =        -0.00338668
  eigenvalues    EBANDS =      -621.37165052
  atomic energy  EATOM  =      2784.24678469
  Solvation  Ediel_sol  =         0.00000000
  ---------------------------------------------------
  free energy    TOTEN  =       -17.07193851 eV

  energy without entropy =      -17.06855183  energy(sigma->0) =      -17.07024517


--------------------------------------------------------------------------------------------------------




--------------------------------------- Iteration      1(  21)  ---------------------------------------


    POTLOK:  cpu time    0.0584: real time    0.0588
    SETDIJ:  cpu time    0.0032: real time    0.0033
     EDDAV:  cpu time    3.3905: real time    3.4029
       DOS:  cpu time    0.0006: real time    0.0006
    CHARGE:  cpu time    0.1974: real time    0.1988
    MIXING:  cpu time    0.0029: real time    0.0029
    --------------------------------------------
      LOOP:  cpu time    3.6531: real time    3.6673

 eigenvalue-minimisations  :  4928
 total energy-change (2. order) :-0.1474260E-03  (-0.8768569E-06)
 number of electron      34.0000076 magnetization       1.9999913
 augmentation part       -1.4793166 magnetization       0.1243071

 Broyden mixing:
  rms(total) = 0.24891E-03    rms(broyden)= 0.24869E-03
  rms(prec ) = 0.43046E-03
  weight for this iteration     100.00

 eigenvalues of (default mixing * dielectric matrix)
  average eigenvalue GAMMA=   1.7025
  7.4361  3.7333  2.6056  1.9739  1.4146  1.4146  1.2751  1.2751  0.9928  0.9928
  0.7817  0.7580  0.7259  0.6455  0.6076  0.6076

 Free energy of the ion-electron system (eV)
  ---------------------------------------------------
  alpha Z        PSCENC =         4.03694953
  Ewald energy   TEWEN  =       239.49466125
  -Hartree energ DENC   =     -2556.73507060
  -exchange      EXHF   =         0.00000000
  -V(xc)+E(xc)   XCENC  =       114.85159593
  PAW double counting   =      1944.13795174    -1925.72705320
  entropy T*S    EENTRO =        -0.00338689
  eigenvalues    EBANDS =      -621.37451838
  atomic energy  EATOM  =      2784.24678469
  Solvation  Ediel_sol  =         0.00000000
  ---------------------------------------------------
  free energy    TOTEN  =       -17.07208594 eV

  energy without entropy =      -17.06869904  energy(sigma->0) =      -17.07039249


--------------------------------------------------------------------------------------------------------




--------------------------------------- Iteration      1(  22)  ---------------------------------------


    POTLOK:  cpu time    0.0588: real time    0.0591
    SETDIJ:  cpu time    0.0032: real time    0.0032
     EDDAV:  cpu time    3.3115: real time    3.3235
       DOS:  cpu time    0.0007: real time    0.0007
    --------------------------------------------
      LOOP:  cpu time    3.3741: real time    3.3865

 eigenvalue-minimisations  :  4784
 total energy-change (2. order) :-0.9126366E-04  (-0.6246678E-06)
 number of electron      34.0000076 magnetization       1.9999913
 augmentation part       -1.4793166 magnetization       0.1243071

 Free energy of the ion-electron system (eV)
  ---------------------------------------------------
  alpha Z        PSCENC =         4.03694953
  Ewald energy   TEWEN  =       239.49466125
  -Hartree energ DENC   =     -2556.73053804
  -exchange      EXHF   =         0.00000000
  -V(xc)+E(xc)   XCENC  =       114.85139369
  PAW double counting   =      1944.15503775    -1925.74401640
  entropy T*S    EENTRO =        -0.00338551
  eigenvalues    EBANDS =      -621.37906414
  atomic energy  EATOM  =      2784.24678469
  Solvation  Ediel_sol  =         0.00000000
  ---------------------------------------------------
  free energy    TOTEN  =       -17.07217720 eV

  energy without entropy =      -17.06879169  energy(sigma->0) =      -17.07048444


--------------------------------------------------------------------------------------------------------




 average (electrostatic) potential at core
  the test charge radii are     1.0703  0.9406
  (the norm of the test charge is              1.0000)
       1 -94.8546       2-101.2761       3-101.1331       4 -99.2181
 
 
 
 E-fermi :  -4.8660     XC(G=0):  -1.0902     alpha+bet : -0.5275


 spin component 1

 k-point     1 :       0.1250    0.1250    0.1250
  band No.  band energies     occupation 
      1     -61.4584      1.00000
      2     -37.7895      1.00000
      3     -37.5705      1.00000
      4     -37.4091      1.00000
      5     -20.6977      1.00000
      6     -20.3191      1.00000
      7     -18.3017      1.00000
      8     -10.2739      1.00000
      9      -9.2579      1.00000
     10      -9.0014      1.00000
     11      -8.5681      1.00000
     12      -8.4780      1.00000
     13      -8.4602      1.00000
     14      -7.4484      1.00000
     15      -6.5096      1.00000
     16      -6.2684      1.00000
     17      -5.4160      0.99995
     18      -5.2412      0.99601
     19      -4.4913      0.00403
     20      -4.1867      0.00000
     21      -4.0153      0.00000
     22      -1.2395      0.00000
     23      -0.2857      0.00000
     24       0.2194      0.00000
     25       0.4480      0.00000
     26       0.7075      0.00000
     27       1.0558      0.00000
     28       1.1218      0.00000
     29       1.2934      0.00000
     30       1.4204      0.00000
     31       1.5354      0.00000
     32       1.6576      0.00000

 k-point     2 :       0.3750    0.1250    0.1250
  band No.  band energies     occupation 
      1     -61.4584      1.00000
      2     -37.7895      1.00000
      3     -37.5705      1.00000
      4     -37.4091      1.00000
      5     -20.6977      1.00000
      6     -20.3191      1.00000
      7     -18.3017      1.00000
      8     -10.2739      1.00000
      9      -9.2579      1.00000
     10      -9.0015      1.00000
     11      -8.5681      1.00000
     12      -8.4780      1.00000
     13      -8.4602      1.00000
     14      -7.4484      1.00000
     15      -6.5095      1.00000
     16      -6.2684      1.00000
     17      -5.4160      0.99995
     18      -5.2412      0.99602
     19      -4.4913      0.00403
     20      -4.1865      0.00000
     21      -4.0147      0.00000
     22      -1.2359      0.00000
     23      -0.2593      0.00000
     24       0.1159      0.00000
     25       0.4783      0.00000
     26       0.6898      0.00000
     27       1.1207      0.00000
     28       1.1698      0.00000
     29       1.2752      0.00000
     30       1.3038      0.00000
     31       1.4833      0.00000
     32       1.6295      0.00000

 k-point     3 :      -0.3750    0.1250    0.1250
  band No.  band energies     occupation 
      1     -61.4584      1.00000
      2     -37.7895      1.00000
      3     -37.5705      1.00000
      4     -37.4091      1.00000
      5     -20.6977      1.00000
      6     -20.3191      1.00000
      7     -18.3017      1.00000
      8     -10.2739      1.00000
      9      -9.2579      1.00000
     10      -9.0014      1.00000
     11      -8.5681      1.00000
     12      -8.4780      1.00000
     13      -8.4602      1.00000
     14      -7.4485      1.00000
     15      -6.5095      1.00000
     16      -6.2684      1.00000
     17      -5.4159      0.99995
     18      -5.2413      0.99602
     19      -4.4913      0.00403
     20      -4.1865      0.00000
     21      -4.0147      0.00000
     22      -1.2359      0.00000
     23      -0.2626      0.00000
     24       0.1223      0.00000
     25       0.4806      0.00000
     26       0.7027      0.00000
     27       1.0799      0.00000
     28       1.1562      0.00000
     29       1.2873      0.00000
     30       1.3239      0.00000
     31       1.4954      0.00000
     32       1.5632      0.00000

 k-point     4 :      -0.1250    0.1250    0.1250
  band No.  band energies     occupation 
      1     -61.4584      1.00000
      2     -37.7895      1.00000
      3     -37.5705      1.00000
      4     -37.4092      1.00000
      5     -20.6977      1.00000
      6     -20.3191      1.00000
      7     -18.3017      1.00000
      8     -10.2739      1.00000
      9      -9.2579      1.00000
     10      -9.0014      1.00000
     11      -8.5681      1.00000
     12      -8.4780      1.00000
     13      -8.4603      1.00000
     14      -7.4484      1.00000
     15      -6.5096      1.00000
     16      -6.2684      1.00000
     17      -5.4160      0.99995
     18      -5.2412      0.99602
     19      -4.4913      0.00403
     20      -4.1867      0.00000
     21      -4.0152      0.00000
     22      -1.2395      0.00000
     23      -0.2883      0.00000
     24       0.2271      0.00000
     25       0.4508      0.00000
     26       0.7093      0.00000
     27       1.0619      0.00000
     28       1.1155      0.00000
     29       1.2474      0.00000
     30       1.4483      0.00000
     31       1.5450      0.00000
     32       1.5870      0.00000

 k-point     5 :       0.1250    0.3750    0.1250
  band No.  band energies     occupation 
      1     -61.4584      1.00000
      2     -37.7895      1.00000
      3     -37.5705      1.00000
      4     -37.4092      1.00000
      5     -20.6977      1.00000
      6     -20.3191      1.00000
      7     -18.3017      1.00000
      8     -10.2739      1.00000
      9      -9.2579      1.00000
     10      -9.0014      1.00000
     11      -8.5681      1.00000
     12      -8.4780      1.00000
     13      -8.4602      1.00000
     14      -7.4484      1.00000
     15      -6.5096      1.00000
     16      -6.2684      1.00000
     17      -5.4160      0.99995
     18      -5.2413      0.99602
     19      -4.4913      0.00403
     20      -4.1867      0.00000
     21      -4.0152      0.00000
     22      -1.2321      0.00000
     23      -0.2627      0.00000
     24       0.1833      0.00000
     25       0.3791      0.00000
     26       0.7761      0.00000
     27       1.0186      0.00000
     28       1.1721      0.00000
     29       1.2224      0.00000
     30       1.3637      0.00000
     31       1.4964      0.00000
     32       1.6263      0.00000

 k-point     6 :       0.3750    0.3750    0.1250
  band No.  band energies     occupation 
      1     -61.4584      1.00000
      2     -37.7895      1.00000
      3     -37.5705      1.00000
      4     -37.4091      1.00000
      5     -20.6977      1.00000
      6     -20.3191      1.00000
      7     -18.3017      1.00000
      8     -10.2739      1.00000
      9      -9.2578      1.00000
     10      -9.0014      1.00000
     11      -8.5681      1.00000
     12      -8.4780      1.00000
     13      -8.4602      1.00000
     14      -7.4484      1.00000
     15      -6.5095      1.00000
     16      -6.2684      1.00000
     17      -5.4159      0.99995
     18      -5.2413      0.99602
     19      -4.4912      0.00403
     20      -4.1864      0.00000
     21      -4.0146      0.00000
     22      -1.2288      0.00000
     23      -0.2409      0.00000
     24       0.1366      0.00000
     25       0.3595      0.00000
     26       0.7708      0.00000
     27       0.9537      0.00000
     28       1.1180      0.00000
     29       1.2470      0.00000
     30       1.3920      0.00000
     31       1.5181      0.00000
     32       1.6160      0.00000

 k-point     7 :      -0.3750    0.3750    0.1250
  band No.  band energies     occupation 
      1     -61.4584      1.00000
      2     -37.7895      1.00000
      3     -37.5705      1.00000
      4     -37.4091      1.00000
      5     -20.6977      1.00000
      6     -20.3191      1.00000
      7     -18.3017      1.00000
      8     -10.2739      1.00000
      9      -9.2579      1.00000
     10      -9.0014      1.00000
     11      -8.5681      1.00000
     12      -8.4780      1.00000
[...]
     26       0.9334      0.00000
     27       0.9945      0.00000
     28       1.0876      0.00000
     29       1.2563      0.00000
     30       1.4182      0.00000
     31       1.9415      0.00000
     32       2.0103      0.00000

 k-point    28 :      -0.1250   -0.3750    0.3750
  band No.  band energies     occupation 
      1     -59.7851      1.00000
      2     -36.3221      1.00000
      3     -36.0075      1.00000
      4     -35.2056      1.00000
      5     -20.2772      1.00000
      6     -20.0401      1.00000
      7     -19.9251      1.00000
      8      -9.5321      1.00000
      9      -9.1644      1.00000
     10      -9.1314      1.00000
     11      -8.3663      1.00000
     12      -8.2237      1.00000
     13      -8.1918      1.00000
     14      -8.1570      1.00000
     15      -7.9855      1.00000
     16      -7.7865      1.00000
     17      -3.0561      0.00000
     18      -3.0518      0.00000
     19      -2.7890      0.00000
     20      -2.4906      0.00000
     21      -2.2781      0.00000
     22      -0.1882      0.00000
     23       0.3076      0.00000
     24       0.3642      0.00000
     25       0.6418      0.00000
     26       0.8748      0.00000
     27       1.1976      0.00000
     28       1.3047      0.00000
     29       1.4035      0.00000
     30       1.5760      0.00000
     31       1.6893      0.00000
     32       1.7906      0.00000

 k-point    29 :       0.1250   -0.1250    0.3750
  band No.  band energies     occupation 
      1     -59.7852      1.00000
      2     -36.3221      1.00000
      3     -36.0075      1.00000
      4     -35.2056      1.00000
      5     -20.2772      1.00000
      6     -20.0401      1.00000
      7     -19.9251      1.00000
      8      -9.5321      1.00000
      9      -9.1644      1.00000
     10      -9.1314      1.00000
     11      -8.3664      1.00000
     12      -8.2237      1.00000
     13      -8.1919      1.00000
     14      -8.1571      1.00000
     15      -7.9856      1.00000
     16      -7.7865      1.00000
     17      -3.0561      0.00000
     18      -3.0520      0.00000
     19      -2.7890      0.00000
     20      -2.4907      0.00000
     21      -2.2780      0.00000
     22      -0.2471      0.00000
     23       0.2656      0.00000
     24       0.4769      0.00000
     25       0.6893      0.00000
     26       1.0934      0.00000
     27       1.1958      0.00000
     28       1.2888      0.00000
     29       1.3239      0.00000
     30       1.5493      0.00000
     31       1.6904      0.00000
     32       1.7297      0.00000

 k-point    30 :       0.3750   -0.1250    0.3750
  band No.  band energies     occupation 
      1     -59.7851      1.00000
      2     -36.3221      1.00000
      3     -36.0075      1.00000
      4     -35.2056      1.00000
      5     -20.2772      1.00000
      6     -20.0401      1.00000
      7     -19.9251      1.00000
      8      -9.5321      1.00000
      9      -9.1644      1.00000
     10      -9.1314      1.00000
     11      -8.3664      1.00000
     12      -8.2237      1.00000
     13      -8.1919      1.00000
     14      -8.1571      1.00000
     15      -7.9855      1.00000
     16      -7.7865      1.00000
     17      -3.0561      0.00000
     18      -3.0518      0.00000
     19      -2.7892      0.00000
     20      -2.4907      0.00000
     21      -2.2779      0.00000
     22      -0.1965      0.00000
     23       0.2986      0.00000
     24       0.4130      0.00000
     25       0.6094      0.00000
     26       0.8782      0.00000
     27       1.2312      0.00000
     28       1.3061      0.00000
     29       1.3819      0.00000
     30       1.5211      0.00000
     31       1.6983      0.00000
     32       1.8067      0.00000

 k-point    31 :      -0.3750   -0.1250    0.3750
  band No.  band energies     occupation 
      1     -59.7852      1.00000
      2     -36.3221      1.00000
      3     -36.0075      1.00000
      4     -35.2056      1.00000
      5     -20.2772      1.00000
      6     -20.0401      1.00000
      7     -19.9251      1.00000
      8      -9.5321      1.00000
      9      -9.1644      1.00000
     10      -9.1314      1.00000
     11      -8.3664      1.00000
     12      -8.2238      1.00000
     13      -8.1918      1.00000
     14      -8.1571      1.00000
     15      -7.9855      1.00000
     16      -7.7865      1.00000
     17      -3.0560      0.00000
     18      -3.0518      0.00000
     19      -2.7891      0.00000
     20      -2.4907      0.00000
     21      -2.2779      0.00000
     22      -0.1958      0.00000
     23       0.3027      0.00000
     24       0.3913      0.00000
     25       0.6311      0.00000
     26       0.8969      0.00000
     27       1.1885      0.00000
     28       1.2914      0.00000
     29       1.3810      0.00000
     30       1.5721      0.00000
     31       1.6991      0.00000
     32       1.7727      0.00000

 k-point    32 :      -0.1250   -0.1250    0.3750
  band No.  band energies     occupation 
      1     -59.7852      1.00000
      2     -36.3221      1.00000
      3     -36.0075      1.00000
      4     -35.2056      1.00000
      5     -20.2772      1.00000
      6     -20.0401      1.00000
      7     -19.9251      1.00000
      8      -9.5321      1.00000
      9      -9.1644      1.00000
     10      -9.1314      1.00000
     11      -8.3664      1.00000
     12      -8.2238      1.00000
     13      -8.1919      1.00000
     14      -8.1571      1.00000
     15      -7.9855      1.00000
     16      -7.7866      1.00000
     17      -3.0560      0.00000
     18      -3.0518      0.00000
     19      -2.7890      0.00000
     20      -2.4909      0.00000
     21      -2.2783      0.00000
     22      -0.2465      0.00000
     23       0.2642      0.00000
     24       0.4670      0.00000
     25       0.7067      0.00000
     26       1.1061      0.00000
     27       1.2168      0.00000
     28       1.2358      0.00000
     29       1.3456      0.00000
     30       1.5061      0.00000
     31       1.6735      0.00000
     32       1.7458      0.00000


--------------------------------------------------------------------------------------------------------


 soft charge-density along one line, spin component           1
         0         1         2         3         4         5         6         7         8         9
 total charge-density along one line
 
 soft charge-density along one line, spin component           2
         0         1         2         3         4         5         6         7         8         9
 total charge-density along one line
 
 pseudopotential strength for first ion, spin component:           1
  6.858 -26.421  -0.000   0.001   0.000   0.001  -0.000  -0.002
-26.421  14.756  -0.001  -0.000   0.001   0.000   0.000  -0.000
 -0.000  -0.001 -13.550   0.033   0.014  10.791  -0.034  -0.014
  0.001  -0.000   0.033 -13.552   0.014  -0.034  10.794  -0.015
  0.000   0.001   0.014   0.014 -13.533  -0.014  -0.015  10.774
  0.001   0.000  10.791  -0.034  -0.014   4.875   0.026   0.013
 -0.000   0.000  -0.034  10.794  -0.015   0.026   4.873   0.013
 -0.002  -0.000  -0.014  -0.015  10.774   0.013   0.013   4.888
  0.010   0.006   0.003  -0.005   0.001  -0.002   0.001   0.001
  0.023   0.011   0.002   0.003  -0.005  -0.001  -0.001   0.001
 -0.004  -0.002   0.003  -0.004   0.001  -0.001   0.001   0.000
  0.010   0.006  -0.005   0.002   0.003   0.001  -0.002  -0.000
  0.006   0.002   0.004   0.000  -0.003  -0.001   0.000   0.000
  0.013   0.008   0.004  -0.006   0.002  -0.003   0.002   0.001
  0.030   0.014   0.003   0.004  -0.006  -0.001  -0.001   0.002
 -0.006  -0.002   0.004  -0.005   0.002  -0.002   0.001  -0.000
  0.013   0.008  -0.006   0.003   0.004   0.002  -0.003  -0.001
  0.008   0.003   0.005   0.001  -0.004  -0.001   0.000   0.000
 pseudopotential strength for first ion, spin component:           2
  6.731 -26.041  -0.000   0.001   0.000  -0.000  -0.002  -0.003
-26.041  14.425   0.000   0.001   0.003  -0.000   0.000  -0.000
 -0.000   0.000 -13.356   0.071   0.038  10.563  -0.085  -0.045
  0.001   0.001   0.071 -13.361   0.037  -0.085  10.569  -0.043
  0.000   0.003   0.038   0.037 -13.324  -0.045  -0.043  10.524
 -0.000  -0.000  10.563  -0.085  -0.045   4.972   0.045   0.021
 -0.002   0.000  -0.085  10.569  -0.043   0.045   4.969   0.020
 -0.003  -0.000  -0.045  -0.043  10.524   0.021   0.020   4.995
  0.025   0.012   0.004  -0.004   0.002  -0.003   0.001  -0.001
  0.047   0.025   0.003   0.003  -0.004  -0.001  -0.001   0.001
 -0.008  -0.005   0.003  -0.004   0.001  -0.001   0.001   0.001
  0.025   0.011  -0.004   0.002   0.004   0.001  -0.002  -0.002
  0.010   0.006   0.004   0.001  -0.003  -0.001  -0.000  -0.001
  0.034   0.015   0.005  -0.006   0.003  -0.003   0.002  -0.001
  0.062   0.032   0.003   0.004  -0.006  -0.002  -0.001   0.002
 -0.010  -0.006   0.003  -0.005   0.001  -0.001   0.001   0.001
  0.033   0.014  -0.006   0.003   0.006   0.002  -0.003  -0.003
  0.014   0.008   0.005   0.001  -0.003  -0.002  -0.001  -0.001
 total augmentation occupancy for first ion, spin component:           1
  1.998  -0.033  -0.000   0.000  -0.000  -0.000   0.000  -0.001   0.019   0.054  -0.013   0.021   0.015  -0.016  -0.047   0.011
 -0.033   1.163  -0.001   0.003  -0.007   0.001  -0.005   0.012  -0.314  -0.392   0.047  -0.302  -0.053   0.321   0.376  -0.042
 -0.000  -0.001   1.999  -0.002  -0.001  -0.030   0.006   0.004   0.008   0.014   0.016  -0.026   0.020   0.001  -0.004  -0.003
  0.000   0.003  -0.002   1.999  -0.001   0.006  -0.031   0.004  -0.026   0.017  -0.023   0.002   0.004   0.005  -0.004   0.003
 -0.000  -0.007  -0.001  -0.001   1.998   0.004   0.004  -0.028   0.010  -0.024   0.013   0.024  -0.030  -0.001   0.004  -0.004
 -0.000   0.001  -0.030   0.006   0.004   0.053  -0.021  -0.016  -0.079  -0.067  -0.089   0.143  -0.117   0.041   0.035   0.047
  0.000  -0.005   0.006  -0.031   0.004  -0.021   0.055  -0.016   0.145  -0.090   0.145  -0.037  -0.019  -0.075   0.047  -0.075
 -0.001   0.012   0.004   0.004  -0.028  -0.016  -0.016   0.047  -0.063   0.138  -0.053  -0.113   0.132   0.030  -0.072   0.029
  0.019  -0.314   0.008  -0.026   0.010  -0.079   0.145  -0.063   2.216  -0.041   0.665   0.029   0.040  -0.915   0.091  -0.414
  0.054  -0.392   0.014   0.017  -0.024  -0.067  -0.090   0.138  -0.041   2.621  -0.432  -0.174   0.750   0.081  -1.111   0.281
 -0.013   0.047   0.016  -0.023   0.013  -0.089   0.145  -0.053   0.665  -0.432   1.893  -0.367  -0.076  -0.411   0.283  -0.793
  0.021  -0.302  -0.026   0.002   0.024   0.143  -0.037  -0.113   0.029  -0.174  -0.367   2.293  -0.640   0.074   0.165   0.190
  0.015  -0.053   0.020   0.004  -0.030  -0.117  -0.019   0.132   0.040   0.750  -0.076  -0.640   1.989   0.008  -0.502  -0.011
 -0.016   0.321   0.001   0.005  -0.001   0.041  -0.075   0.030  -0.915   0.081  -0.411   0.074   0.008   0.471  -0.036   0.192
 -0.047   0.376  -0.004  -0.004   0.004   0.035   0.047  -0.072   0.091  -1.111   0.283   0.165  -0.502  -0.036   0.601  -0.132
  0.011  -0.042  -0.003   0.003  -0.004   0.047  -0.075   0.029  -0.414   0.281  -0.793   0.190  -0.011   0.192  -0.132   0.414
 -0.017   0.309   0.005   0.001  -0.006  -0.075   0.019   0.056   0.075   0.157   0.194  -0.964   0.405  -0.026  -0.077  -0.097
 -0.013   0.043  -0.003  -0.001   0.009   0.061   0.009  -0.071   0.012  -0.497  -0.011   0.409  -0.779   0.005   0.237  -0.012
 total augmentation occupancy for first ion, spin component:           2
  0.002   0.019  -0.000   0.000  -0.000  -0.000   0.000  -0.000   0.039   0.039  -0.003   0.038   0.002  -0.026  -0.024   0.002
  0.019   0.352   0.000   0.000   0.000  -0.001  -0.001  -0.003   0.287   0.290  -0.023   0.277   0.016  -0.001   0.001  -0.001
 -0.000   0.000   0.004   0.002   0.002   0.009   0.005   0.004  -0.002   0.001   0.002  -0.001  -0.000   0.002  -0.000  -0.002
  0.000   0.000   0.002   0.004   0.002   0.005   0.009   0.004  -0.001   0.001  -0.000  -0.001  -0.001   0.001  -0.001  -0.000
 -0.000   0.000   0.002   0.002   0.004   0.004   0.004   0.010  -0.002  -0.001   0.004  -0.001  -0.006   0.003   0.001  -0.004
 -0.000  -0.001   0.009   0.005   0.004   0.001   0.000   0.000  -0.001   0.000   0.001  -0.001  -0.000  -0.001  -0.001  -0.000
  0.000  -0.001   0.005   0.009   0.004   0.000   0.001   0.000  -0.001   0.001   0.000  -0.001  -0.001   0.001  -0.001   0.001
 -0.000  -0.003   0.004   0.004   0.010   0.000   0.000   0.001  -0.004  -0.002   0.002  -0.003  -0.003  -0.001   0.002   0.000
  0.039   0.287  -0.002  -0.001  -0.002  -0.001  -0.001  -0.004   0.387   0.190  -0.124   0.235   0.046   0.003   0.006  -0.004
  0.039   0.290   0.001   0.001  -0.001   0.000   0.001  -0.002   0.190   0.402   0.090   0.189  -0.175  -0.006   0.034   0.002
 -0.003  -0.023   0.002  -0.000   0.004   0.001   0.000   0.002  -0.124   0.090   0.239   0.011  -0.077   0.000   0.005   0.003
  0.038   0.277  -0.001  -0.001  -0.001  -0.001  -0.001  -0.003   0.235   0.189   0.011   0.368   0.125   0.002   0.006  -0.013
  0.002   0.016  -0.000  -0.001  -0.006  -0.000  -0.001  -0.003   0.046  -0.175  -0.077   0.125   0.347   0.009  -0.010  -0.017
 -0.026  -0.001   0.002   0.001   0.003  -0.001   0.001  -0.001   0.003  -0.006   0.000   0.002   0.009   0.002  -0.008  -0.025
 -0.024   0.001  -0.000  -0.001   0.001  -0.001  -0.001   0.002   0.006   0.034   0.005   0.006  -0.010  -0.008  -0.001   0.018
  0.002  -0.001  -0.002  -0.000  -0.004  -0.000   0.001   0.000  -0.004   0.002   0.003  -0.013  -0.017  -0.025   0.018   0.024
 -0.026   0.000   0.001   0.001   0.002   0.001  -0.001  -0.002   0.003  -0.005  -0.008   0.005   0.003  -0.005  -0.006   0.012
 -0.000   0.001   0.001   0.001   0.005  -0.001  -0.001  -0.000   0.015  -0.004  -0.017   0.008   0.022   0.002  -0.030  -0.006


------------------------ aborting loop because EDIFF is reached ----------------------------------------


    CHARGE:  cpu time    0.1968: real time    0.1974
    FORLOC:  cpu time    0.0014: real time    0.0014
    FORNL :  cpu time    0.3750: real time    0.3764
    STRESS:  cpu time    1.8219: real time    1.8281
    FORCOR:  cpu time    0.0554: real time    0.0556
    FORHAR:  cpu time    0.0059: real time    0.0059
    MIXING:  cpu time    0.0011: real time    0.0011
    OFIELD:  cpu time    0.0000: real time    0.0000

  FORCE on cell =-STRESS in cart. coord.  units (eV):
  Direction    XX          YY          ZZ          XY          YZ          ZX
  --------------------------------------------------------------------------------------
  Alpha Z     4.03695     4.03695     4.03695
  Ewald      44.61359   134.21559   176.03338  -331.60890  -377.75226  -323.63509
  Hartree   840.47016   901.60287   932.13069  -221.14989  -249.26595  -216.31439
  E(xc)    -136.85967  -136.80263  -136.77297    -0.30263    -0.33566    -0.29552
  Local   -1550.72818 -1697.68887 -1769.26128   544.93523   615.59372   532.42896
  n-local   238.50059   239.29445   239.65855    -4.02378    -4.32052    -3.87023
  augment   -38.79765   -39.04865   -39.08338     0.37534     0.59108     0.35165
  Kinetic   598.45873   593.89138   592.55898    11.56446    15.66229    11.29322
  Fock        0.00000     0.00000     0.00000     0.00000     0.00000     0.00000
  -------------------------------------------------------------------------------------
  Total      -0.30548    -0.49892    -0.69909    -0.21018     0.17270    -0.04139
  in kB      -0.28324    -0.46259    -0.64819    -0.19488     0.16013    -0.03838
  external pressure =       -0.46 kB  Pullay stress =        0.00 kB


 VOLUME and BASIS-vectors are now :
 -----------------------------------------------------------------------------
  energy-cutoff  :      293.24
  volume of cell :     1728.00
      direct lattice vectors                 reciprocal lattice vectors
    12.000000000  0.000000000  0.000000000     0.083333333  0.000000000  0.000000000
     0.000000000 12.000000000  0.000000000     0.000000000  0.083333333  0.000000000
     0.000000000  0.000000000 12.000000000     0.000000000  0.000000000  0.083333333

  length of vectors
    12.000000000 12.000000000 12.000000000     0.083333333  0.083333333  0.083333333


 FORCES acting on ions
    electron-ion (+dipol)            ewald-force                    non-local-force                 convergence-correction
 -----------------------------------------------------------------------------------------------
   0.368E+02 0.528E+01 -.807E+01   -.360E+02 -.520E+01 0.792E+01   -.848E+00 -.968E-01 0.271E+00   0.226E-01 -.858E-02 -.182E-01
   0.973E+02 0.138E+03 -.259E+03   -.974E+02 -.138E+03 0.259E+03   0.912E-01 0.385E+00 -.540E+00   0.384E-01 0.155E-01 -.476E-01
   0.123E+03 -.258E+03 0.125E+03   -.123E+03 0.259E+03 -.126E+03   0.490E-01 -.388E+00 0.315E+00   0.147E-01 0.304E-01 -.303E-01
   -.256E+03 0.115E+03 0.141E+03   0.257E+03 -.116E+03 -.142E+03   -.781E+00 0.296E+00 0.440E+00   0.217E-01 0.494E-02 -.105E-01
 -----------------------------------------------------------------------------------------------
   0.139E+01 -.233E+00 -.383E+00   0.000E+00 0.284E-13 0.000E+00   -.149E+01 0.196E+00 0.486E+00   0.973E-01 0.423E-01 -.107E+00
 
 
 POSITION                                       TOTAL-FORCE (eV/Angst)
 -----------------------------------------------------------------------------------
      0.54591      0.62655      0.58072        -0.000013     -0.026576      0.109374
     -0.13374     11.59280      2.50553        -0.003884      0.065387     -0.091089
     -0.30418      2.51873     11.64018        -0.059114      0.017044      0.019304
      2.40971     -0.19193     11.55635         0.063010     -0.055855     -0.037590
 -----------------------------------------------------------------------------------
    total drift:                               -0.004987      0.005286     -0.003468


--------------------------------------------------------------------------------------------------------



  FREE ENERGIE OF THE ION-ELECTRON SYSTEM (eV)
  ---------------------------------------------------
  free  energy   TOTEN  =       -18.60111948 eV

  energy  without entropy=      -18.50579731  energy(sigma->0) =      -18.55345840
 
 d Force = 0.8145452E-04[-0.528E-03, 0.691E-03]  d Energy =-0.2035601E-03 0.285E-03
 d Force = 0.2232396E+00[ 0.219E+00, 0.228E+00]  d Ewald  = 0.2232251E+00 0.145E-04


--------------------------------------------------------------------------------------------------------


    POTLOK:  cpu time    0.0620: real time    0.0622


--------------------------------------------------------------------------------------------------------




--------------------------------------------------------------------------------------------------------


  
 reached required accuracy - stopping structural energy minimisation
 writing wavefunctions
     LOOP+:  cpu time   16.6214: real time   16.9370
    4ORBIT:  cpu time    0.0000: real time    0.0000

 total amount of memory used by VASP MPI-rank0   272515. kBytes
=======================================================================

   base      :      30000. kBytes
   nonl-proj :     183224. kBytes
   fftplans  :       2864. kBytes
   grid      :      15769. kBytes
   one-center:        124. kBytes
   wavefun   :      40534. kBytes
 
  
  
 General timing and accounting informations for this job:
 ========================================================
  
                  Total CPU time used (sec):      846.268
                            User time (sec):      817.908
                          System time (sec):       28.360
                         Elapsed time (sec):      850.901
  
                   Maximum memory used (kb):      447436.
                   Average memory used (kb):           0.
  
                          Minor page faults:       180161
                          Major page faults:           36
                 Voluntary context switches:        12217
