 vasp.5.4.1 05Feb16 (build Mar 19 2020 08:54:17) complex                        
  
 executed on           IFC91_ompi date 2021.12.19  09:28:11
 running on   96 total cores
 distrk:  each k-point on   96 cores,    1 groups
 distr:  one band on NCORES_PER_BAND=  24 cores,    4 groups


--------------------------------------------------------------------------------------------------------


 INCAR:
 POTCAR:   PAW_PBE Ni 06Sep2000                   
 POTCAR:    PAW_PBE Nb_sv 25May2007               
 POTCAR:    PAW_PBE W 08Apr2002                   

 ----------------------------------------------------------------------------- 
|                                                                             |
|           W    W    AA    RRRRR   N    N  II  N    N   GGGG   !!!           |
|           W    W   A  A   R    R  NN   N  II  NN   N  G    G  !!!           |
|           W    W  A    A  R    R  N N  N  II  N N  N  G       !!!           |
|           W WW W  AAAAAA  RRRRR   N  N N  II  N  N N  G  GGG   !            |
|           WW  WW  A    A  R   R   N   NN  II  N   NN  G    G                |
|           W    W  A    A  R    R  N    N  II  N    N   GGGG   !!!           |
|                                                                             |
|      For optimal performance we recommend to set                            |
|        NCORE= 4 - approx SQRT( number of cores)                             |
|      NCORE specifies how many cores store one orbital (NPAR=cpu/NCORE).     |
|      This setting can  greatly improve the performance of VASP for DFT.     |
|      The default, NPAR=number of cores might be grossly inefficient         |
|      on modern multi-core architectures or massively parallel machines.     |
|      Do your own testing !!!!                                               |
|      Unfortunately you need to use the default for GW and RPA calculations. |
|      (for HF NCORE is supported but not extensively tested yet)             |
|                                                                             |
 ----------------------------------------------------------------------------- 

 POTCAR:   PAW_PBE Ni 06Sep2000                   
   VRHFIN =Ni:                                                                  
   LEXCH  = PE                                                                  
   EATOM  =  1077.9025 eV,   79.2236 Ry                                         
                                                                                
   TITEL  = PAW_PBE Ni 06Sep2000                                                
   LULTRA =        F    use ultrasoft PP ?                                      
   IUNSCR =        1    unscreen: 0-lin 1-nonlin 2-no                           
   RPACOR =    2.000    partial core radius                                     
   POMASS =   58.690; ZVAL   =   10.000    mass and valenz                      
   RCORE  =    2.300    outmost cutoff radius                                   
   RWIGS  =    2.430; RWIGS  =    1.286    wigner-seitz radius (au A)           
   ENMAX  =  269.533; ENMIN  =  202.150 eV                                      
   RCLOC  =    1.681    cutoff for local pot                                    
   LCOR   =        T    correct aug charges                                     
   LPAW   =        T    paw PP                                                  
   EAUG   =  544.565                                                            
   DEXC   =    -.009                                                            
   RMAX   =    2.808    core radius for proj-oper                               
   RAUG   =    1.300    factor for augmentation sphere                          
   RDEP   =    2.390    radius for radial grids                                 
   QCUT   =   -4.451; QGAM   =    8.902    optimization parameters              
                                                                                
   Description                                                                  
     l     E      TYP  RCUT    TYP  RCUT                                        
     2   .000     23  2.300                                                     
     2   .000     23  2.300                                                     
     0   .000     23  2.300                                                     
     0   .000     23  2.300                                                     
     1  -.200     23  2.300                                                     
     1   .000     23  2.300                                                     
     3   .000      7   .000                                                     
  local pseudopotential read in
  partial core-charges read in
  atomic valenz-charges read in
  non local Contribution for L=           2  read in
    real space projection operators read in
  non local Contribution for L=           2  read in
    real space projection operators read in
  non local Contribution for L=           0  read in
    real space projection operators read in
  non local Contribution for L=           0  read in
    real space projection operators read in
  non local Contribution for L=           1  read in
    real space projection operators read in
  non local Contribution for L=           1  read in
    real space projection operators read in
    PAW grid and wavefunctions read in
 
   number of l-projection  operators is LMAX  =           6
   number of lm-projection operators is LMMAX =          18
 
 POTCAR:    PAW_PBE Nb_sv 25May2007               
   VRHFIN =Nb: 4p5s4d                                                           
   LEXCH  = PE                                                                  
   EATOM  =  1555.1913 eV,  114.3033 Ry                                         
                                                                                
   TITEL  = PAW_PBE Nb_sv 25May2007                                             
   LULTRA =        F    use ultrasoft PP ?                                      
   IUNSCR =        1    unscreen: 0-lin 1-nonlin 2-no                           
   RPACOR =    1.800    partial core radius                                     
   POMASS =   92.910; ZVAL   =   13.000    mass and valenz                      
   RCORE  =    2.400    outmost cutoff radius                                   
   RWIGS  =    2.400; RWIGS  =    1.270    wigner-seitz radius (au A)           
   ENMAX  =  293.235; ENMIN  =  219.927 eV                                      
   ICORE  =        3    local potential                                         
   LCOR   =        T    correct aug charges                                     
   LPAW   =        T    paw PP                                                  
   EAUG   =  455.659                                                            
   DEXC   =    0.000                                                            
   RMAX   =    2.456    core radius for proj-oper                               
   RAUG   =    1.300    factor for augmentation sphere                          
   RDEP   =    2.451    radius for radial grids                                 
   RDEPT  =    1.956    core radius for aug-charge                              
                                                                                
   Atomic configuration                                                         
   11 entries                                                                   
     n  l   j            E        occ.                                          
     1  0  0.50    -18805.2457   2.0000                                         
     2  0  0.50     -2630.2869   2.0000                                         
     2  1  1.50     -2348.4046   6.0000                                         
     3  0  0.50      -438.8757   2.0000                                         
     3  1  1.50      -346.7588   6.0000                                         
     3  2  2.50      -196.2560  10.0000                                         
     4  0  0.50       -58.3859   2.0000                                         
     5  0  0.50        -3.9816   1.0000                                         
     4  1  1.50       -34.5141   6.0000                                         
     4  2  2.50        -3.0408   4.0000                                         
     4  3  2.50        -1.3606   0.0000                                         
   Description                                                                  
     l       E           TYP  RCUT    TYP  RCUT                                 
     0    -58.3859094     23  2.200                                             
     0     -3.9816262     23  2.200                                             
     1    -34.5140738     23  2.200                                             
     1     13.6058260     23  2.200                                             
     2     -3.0408010     23  2.200                                             
     2     -0.1283038     23  2.200                                             
     3     -1.3605826     23  2.400                                             
  local pseudopotential read in
  partial core-charges read in
  partial kinetic energy density read in
  atomic valenz-charges read in
  non local Contribution for L=           0  read in
    real space projection operators read in
  non local Contribution for L=           0  read in
    real space projection operators read in
  non local Contribution for L=           1  read in
    real space projection operators read in
  non local Contribution for L=           1  read in
    real space projection operators read in
  non local Contribution for L=           2  read in
    real space projection operators read in
  non local Contribution for L=           2  read in
    real space projection operators read in
    PAW grid and wavefunctions read in
 
   number of l-projection  operators is LMAX  =           6
   number of lm-projection operators is LMMAX =          18
 
 POTCAR:    PAW_PBE W 08Apr2002                   
   VRHFIN =W : 6s5d                                                             
   LEXCH  = PE                                                                  
   EATOM  =   204.6103 eV,   15.0384 Ry                                         
                                                                                
   TITEL  = PAW_PBE W 08Apr2002                                                 
   LULTRA =        F    use ultrasoft PP ?                                      
   IUNSCR =        1    unscreen: 0-lin 1-nonlin 2-no                           
   RPACOR =    2.330    partial core radius                                     
   POMASS =  183.850; ZVAL   =    6.000    mass and valenz                      
   RCORE  =    2.750    outmost cutoff radius                                   
   RWIGS  =    2.750; RWIGS  =    1.455    wigner-seitz radius (au A)           
   ENMAX  =  223.057; ENMIN  =  167.293 eV                                      
   RCLOC  =    2.147    cutoff for local pot                                    
   LCOR   =        T    correct aug charges                                     
   LPAW   =        T    paw PP                                                  
   EAUG   =  373.438                                                            
   DEXC   =    0.000                                                            
   RMAX   =    2.801    core radius for proj-oper                               
   RAUG   =    1.300    factor for augmentation sphere                          
   RDEP   =    2.886    radius for radial grids                                 
   RDEPT  =    2.230    core radius for aug-charge                              
                                                                                
   Atomic configuration                                                         
   16 entries                                                                   
     n  l   j            E        occ.                                          
     1  0  0.50    -69465.5836   2.0000                                         
     2  0  0.50    -11986.2642   2.0000                                         
     2  1  1.50    -10479.8616   6.0000                                         
     3  0  0.50     -2759.0758   2.0000                                         
     3  1  1.50     -2313.1857   6.0000                                         
     3  2  2.50     -1801.1185  10.0000                                         
     4  0  0.50      -567.6791   2.0000                                         
     4  1  1.50      -421.4694   6.0000                                         
     4  2  2.50      -236.3473  10.0000                                         
     4  3  3.50       -31.2666  14.0000                                         
     5  0  0.50       -77.1085   2.0000                                         
     5  1  1.50       -41.3856   6.0000                                         
     5  2  2.50        -3.3185   5.0000                                         
     6  0  0.50        -5.1438   1.0000                                         
     6  1  0.50        -3.8096   0.0000                                         
     5  3  2.50        -1.3606   0.0000                                         
   Description                                                                  
     l       E           TYP  RCUT    TYP  RCUT                                 
     2     -3.3185288     23  2.500                                             
     2     -1.5965414     23  2.500                                             
     0     -5.1438054     23  2.500                                             
     0      4.9117504     23  2.500                                             
     1      2.7211652     23  2.750                                             
     1     27.2116520     23  2.750                                             
  local pseudopotential read in
  partial core-charges read in
  partial kinetic energy density read in
  atomic valenz-charges read in
  non local Contribution for L=           2  read in
    real space projection operators read in
  non local Contribution for L=           2  read in
    real space projection operators read in
  non local Contribution for L=           0  read in
    real space projection operators read in
  non local Contribution for L=           0  read in
    real space projection operators read in
  non local Contribution for L=           1  read in
    real space projection operators read in
  non local Contribution for L=           1  read in
    real space projection operators read in
    PAW grid and wavefunctions read in
 
   number of l-projection  operators is LMAX  =           6
   number of lm-projection operators is LMMAX =          18
 
 Optimization of the real space projectors (new method)

 maximal supplied QI-value         = 16.25
 optimisation between [QCUT,QGAM] = [ 12.51, 25.03] = [ 43.85,175.40] Ry 
 Optimized for a Real-space Cutoff    1.31 Angstroem

   l    n(q)    QCUT    max X(q) W(low)/X(q) W(high)/X(q)  e(spline) 
   2      9    12.514     4.811    0.56E-04    0.27E-04    0.54E-07
   2      9    12.514    15.146    0.50E-03    0.83E-03    0.65E-06
   0     10    12.514    14.357    0.12E-04    0.16E-04    0.90E-08
   0     10    12.514    43.282    0.85E-04    0.27E-03    0.25E-06
   1      9    12.514     5.514    0.64E-04    0.11E-04    0.56E-07
   1      9    12.514     7.697    0.40E-03    0.73E-04    0.27E-06
 Optimization of the real space projectors (new method)

 maximal supplied QI-value         = 15.68
 optimisation between [QCUT,QGAM] = [ 12.55, 25.10] = [ 44.09,176.36] Ry 
 Optimized for a Real-space Cutoff    1.56 Angstroem

   l    n(q)    QCUT    max X(q) W(low)/X(q) W(high)/X(q)  e(spline) 
   0     12    12.548    10.201    0.21E-04    0.36E-05    0.83E-07
   0     12    12.548     8.174    0.31E-04    0.62E-05    0.15E-06
   1     11    12.548     3.488    0.79E-05    0.23E-04    0.21E-06
   1     11    12.548     4.917    0.56E-04    0.13E-03    0.11E-05
   2     11    12.548   153.744    0.25E-03    0.10E-03    0.15E-05
   2     11    12.548   126.342    0.25E-03    0.10E-03    0.15E-05
 Optimization of the real space projectors (new method)

 maximal supplied QI-value         = 13.61
 optimisation between [QCUT,QGAM] = [ 12.52, 25.04] = [ 43.88,175.51] Ry 
 Optimized for a Real-space Cutoff    1.56 Angstroem

   l    n(q)    QCUT    max X(q) W(low)/X(q) W(high)/X(q)  e(spline) 
   2     11    12.518   130.855    0.35E-03    0.25E-03    0.12E-05
   2     11    12.518   114.007    0.35E-03    0.25E-03    0.12E-05
   0     12    12.518    84.709    0.29E-04    0.97E-05    0.60E-06
   0     12    12.518    49.163    0.27E-04    0.89E-05    0.55E-06
   1     11    12.518    15.765    0.74E-04    0.89E-04    0.15E-06
   1     11    12.518    10.638    0.55E-04    0.69E-04    0.13E-06
 PAW_PBE Ni 06Sep2000                   :
 energy of atom  1       EATOM=-1077.9025
 kinetic energy error for atom=    0.0019 (will be added to EATOM!!)
  PAW_PBE Nb_sv 25May2007               :
 energy of atom  2       EATOM=-1555.1913
 kinetic energy error for atom=    0.0037 (will be added to EATOM!!)
  PAW_PBE W 08Apr2002                   :
 energy of atom  3       EATOM= -204.6103
 kinetic energy error for atom=    0.0005 (will be added to EATOM!!)
 
 
 POSCAR: Ni Nb  W                                
  positions in direct lattice
  velocities in cartesian coordinates
 exchange correlation table for  LEXCH =        8
   RHO(1)=    0.500       N(1)  =     2000
   RHO(2)=  100.500       N(2)  =     4000
 


--------------------------------------------------------------------------------------------------------


 ion  position               nearest neighbor table
   1  0.017  0.480  0.240-   6 2.46  31 2.47  44 2.50  16 2.52  67 2.52  35 2.53  68 2.57  10 2.57
                            59 2.65
   2  0.188  0.971  0.247-  63 2.48  24 2.53  64 2.53   3 2.55  13 2.59  65 2.59  14 2.68  56 2.71

   3  0.016  0.029  0.176-  14 2.52   4 2.53  61 2.55   2 2.55   5 2.57  63 2.57  49 2.58  71 2.58
                            13 2.59  38 2.59  21 2.64  56 2.66
   4  0.176  0.196  0.175-  10 2.50  13 2.51   3 2.53  60 2.53  31 2.54  71 2.57  49 2.59  42 2.62
                             8 2.67   7 2.67  56 2.75
   5  0.180  0.976  0.103-  71 2.48  30 2.51  29 2.52  42 2.52  18 2.53  13 2.53  50 2.54   3 2.57
                            47 2.57  21 2.57  63 2.59  48 2.62
   6  0.869  0.315  0.238-  10 2.41  54 2.42  31 2.45   1 2.46  49 2.47  51 2.49  56 2.51  16 2.60
                            39 2.77
   7  0.182  0.309  0.097-  22 2.49  10 2.50  69 2.50  37 2.52  45 2.53  28 2.56  20 2.56  60 2.57
                            42 2.57  71 2.61  12 2.62   4 2.67
   8  0.520  0.198  0.173-  60 2.44  51 2.51  39 2.51  49 2.52  38 2.52  13 2.53  12 2.56  42 2.60
                            34 2.61   4 2.67  54 2.75
   9  0.692  0.704  0.025-  32 2.46  43 2.52  62 2.52  15 2.53  19 2.54  41 2.55  57 2.56  58 2.59
                            36 2.67
  10  0.020  0.361  0.168-   6 2.41   4 2.50   7 2.50  28 2.53  31 2.53  68 2.54  22 2.54  35 2.56
                            49 2.57  51 2.57   1 2.57  60 2.62
  11  0.681  0.806  0.244-  23 2.46  65 2.50  24 2.51  44 2.51  61 2.52  14 2.54  64 2.56  17 2.57
                            33 2.59
  12  0.518  0.300  0.097-  34 2.47  42 2.48  40 2.49  70 2.51  20 2.54  60 2.55   8 2.56  66 2.59
                            51 2.60  28 2.61  45 2.61   7 2.62
  13  0.348  0.034  0.173-  65 2.45   4 2.51  42 2.52   8 2.53   5 2.53  63 2.58   3 2.59   2 2.59
                            48 2.60  38 2.60  33 2.63
  14  0.844  0.973  0.246-  39 2.50  64 2.51  56 2.52   3 2.52  65 2.53  11 2.54  61 2.54  38 2.61
                             2 2.68
  15  0.850  0.640  0.096-  41 2.49  19 2.51  43 2.51  35 2.51   9 2.53  53 2.56  17 2.57  22 2.57
                            66 2.58  18 2.58  27 2.60  58 2.66
  16  0.693  0.482  0.239-  44 2.42  54 2.45  25 2.47  35 2.48  23 2.52   1 2.52  51 2.56   6 2.60
                            59 2.62
  17  0.688  0.695  0.170-  44 2.50  23 2.51  35 2.53  43 2.53  61 2.54  27 2.55  33 2.55  25 2.56
                            15 2.57  11 2.57  26 2.60  58 2.63
  18  0.017  0.810  0.101-  53 2.51  27 2.52  29 2.52   5 2.53  43 2.53  21 2.53  47 2.54  19 2.54
                            32 2.57  61 2.58  15 2.58  63 2.62
  19  0.019  0.702  0.028-  53 2.46  47 2.48  15 2.51  32 2.52  18 2.54   9 2.54  41 2.56  36 2.57
                            55 2.61
  20  0.357  0.358  0.025-  45 2.51  69 2.53  12 2.54  70 2.55   7 2.56  40 2.58  55 2.63  37 2.67
                            57 2.76
  21  0.849  0.975  0.100-  71 2.49  32 2.50  34 2.51  43 2.52  61 2.52  46 2.52  50 2.53  18 2.53
                            38 2.53   5 2.57  48 2.59   3 2.64
  22  0.015  0.471  0.096-   7 2.49  68 2.50  37 2.52  55 2.53  35 2.53  10 2.54  28 2.55  41 2.55
                            66 2.57  15 2.57  53 2.61  45 2.64
  23  0.520  0.644  0.241-  26 2.45  11 2.46  24 2.49  17 2.51  16 2.52  59 2.52  44 2.56  25 2.57
                            67 2.59
  24  0.359  0.807  0.248-  23 2.49  65 2.49  11 2.51   2 2.53  67 2.53  63 2.55  26 2.59  33 2.64
                            64 2.72
  25  0.523  0.527  0.169-  16 2.47  51 2.54  17 2.56  35 2.56  23 2.57  60 2.59  26 2.60  59 2.60
                            45 2.61  66 2.62  58 2.67  68 2.67
  26  0.354  0.697  0.173-  23 2.45  33 2.48  63 2.52  67 2.52  24 2.59  29 2.60  25 2.60  68 2.60
                            17 2.60  58 2.61  27 2.63  53 2.68
  27  0.016  0.693  0.171-  44 2.50  35 2.51  68 2.51  18 2.52  17 2.55  53 2.56  67 2.57  63 2.59
                            15 2.60  26 2.63  61 2.66  64 2.71
  28  0.853  0.302  0.098-  71 2.50  34 2.51  10 2.53  70 2.53  52 2.53  49 2.54  37 2.54  51 2.55
                            22 2.55   7 2.56  66 2.57  12 2.61
  29  0.341  0.810  0.099-  47 2.43  62 2.47  58 2.48  53 2.51   5 2.52  18 2.52  33 2.54  48 2.57
                            26 2.60  36 2.60  63 2.62  43 2.73
  30  0.342  0.025  0.031-  47 2.45  48 2.49  50 2.50  40 2.51   5 2.51  62 2.51  42 2.51  69 2.52
                            46 2.64
  31  0.183  0.320  0.242-   6 2.45   1 2.47  59 2.48  60 2.51  10 2.53   4 2.54  56 2.78  54 2.95

  32  0.849  0.866  0.029-   9 2.46  43 2.46  46 2.48  50 2.49  21 2.50  19 2.52  62 2.56  18 2.57
                            47 2.62
  33  0.515  0.860  0.170-  65 2.45  26 2.48  48 2.52  61 2.52  29 2.54  63 2.55  17 2.55  43 2.57
                            11 2.59  38 2.61  13 2.63  24 2.64
  34  0.684  0.139  0.099-  12 2.47  40 2.49  46 2.51  28 2.51  21 2.51  38 2.51  48 2.51  52 2.54
                            49 2.55  71 2.58   8 2.61  42 2.62
  35  0.852  0.529  0.167-  16 2.48  27 2.51  15 2.51   1 2.53  17 2.53  22 2.53  68 2.55  51 2.55
                            10 2.56  25 2.56  66 2.59  44 2.60
  36  0.348  0.701  0.023-  47 2.49  58 2.52  62 2.56  19 2.57  53 2.60  29 2.60  55 2.64  57 2.65
                             9 2.67
  37  0.015  0.357  0.025-  22 2.52   7 2.52  69 2.53  28 2.54  52 2.54  70 2.57  55 2.58  41 2.66
                            20 2.67
  38  0.683  0.032  0.171-  65 2.46  39 2.49  49 2.49  61 2.50  34 2.51   8 2.52  48 2.53  21 2.53
                             3 2.59  13 2.60  14 2.61  33 2.61
  39  0.680  0.136  0.244-  56 2.47  38 2.49  14 2.50   8 2.51  65 2.52  54 2.54  49 2.55   6 2.77

  40  0.516  0.186  0.028-  46 2.46  34 2.49  12 2.49  30 2.51  70 2.52  42 2.53  69 2.55  20 2.58
                            52 2.65
  41  0.852  0.535  0.024-  15 2.49  57 2.50  55 2.52  66 2.54   9 2.55  22 2.55  19 2.56  37 2.66
                            70 2.76
  42  0.348  0.140  0.100-  12 2.48  30 2.51  69 2.52  13 2.52   5 2.52  40 2.53  48 2.53   7 2.57
                            71 2.59   8 2.60   4 2.62  34 2.62
  43  0.692  0.807  0.098-  62 2.45  32 2.46  15 2.51   9 2.52  21 2.52  18 2.53  58 2.53  17 2.53
                            61 2.53  33 2.57  48 2.60  29 2.73
  44  0.849  0.642  0.241-  16 2.42  27 2.50  17 2.50   1 2.50  11 2.51  64 2.54  23 2.56  35 2.60
                            67 2.63
  45  0.354  0.473  0.095-  20 2.51   7 2.53  68 2.54  55 2.56  66 2.58  58 2.60  25 2.61  12 2.61
                            53 2.63  22 2.64  60 2.65  57 2.97
  46  0.681  0.026  0.029-  62 2.45  40 2.46  32 2.48  34 2.51  48 2.51  52 2.52  21 2.52  30 2.64
                            50 2.64
  47  0.185  0.863  0.030-  29 2.43  30 2.45  19 2.48  50 2.48  36 2.49  18 2.54   5 2.57  62 2.61
                            32 2.62
  48  0.516  0.976  0.100-  62 2.43  30 2.49  46 2.51  34 2.51  33 2.52  42 2.53  38 2.53  29 2.57
                            21 2.59  13 2.60  43 2.60   5 2.62
  49  0.844  0.196  0.172-  51 2.47   6 2.47  38 2.49   8 2.52  28 2.54  71 2.54  34 2.55  39 2.55
                            10 2.57   3 2.58   4 2.59  56 2.71
  50  0.021  0.025  0.029-  47 2.48  52 2.49  32 2.49  30 2.50  21 2.53   5 2.54  71 2.55  69 2.57
                            46 2.64
  51  0.689  0.360  0.170-  49 2.47   6 2.49   8 2.51  25 2.54  28 2.55  35 2.55  16 2.56  10 2.57
                            60 2.59  12 2.60  66 2.61  54 2.62
  52  0.856  0.188  0.027-  50 2.49  70 2.51  46 2.52  28 2.53  34 2.54  37 2.54  71 2.56  69 2.59
                            40 2.65
  53  0.178  0.645  0.096-  19 2.46  68 2.49  18 2.51  29 2.51  15 2.56  58 2.56  27 2.56  55 2.59
                            36 2.60  22 2.61  45 2.63  26 2.68
  54  0.561  0.315  0.252-   6 2.42  16 2.45  39 2.54  51 2.62  59 2.68   8 2.75  60 2.89  31 2.95

  55  0.177  0.528  0.024-  41 2.52  22 2.53  45 2.56  37 2.58  53 2.59  19 2.61  20 2.63  36 2.64
                            57 2.83
  56  0.995  0.142  0.253-  39 2.47   6 2.51  14 2.52   3 2.66  49 2.71   2 2.71   4 2.75  31 2.78

  57  0.537  0.535  0.009-  41 2.50   9 2.56  36 2.65  70 2.75  20 2.76  55 2.83  66 2.84  58 2.91
                            45 2.97
  58  0.508  0.649  0.095-  29 2.48  36 2.52  43 2.53  53 2.56   9 2.59  45 2.60  26 2.61  17 2.63
                            15 2.66  25 2.67  66 2.72  57 2.91
  59  0.357  0.479  0.245-  31 2.48  23 2.52  67 2.53  25 2.60  16 2.62   1 2.65  54 2.68  60 2.69
                            68 2.75
  60  0.356  0.356  0.170-   8 2.44  31 2.51   4 2.53  12 2.55   7 2.57  51 2.59  25 2.59  10 2.62
                            45 2.65  68 2.65  59 2.69  54 2.89
  61  0.839  0.866  0.172-  38 2.50  11 2.52  21 2.52  33 2.52  43 2.53  17 2.54  14 2.54   3 2.55
                            18 2.58  27 2.66  64 2.68  63 2.72  65 3.41
  62  0.520  0.865  0.032-  48 2.43  43 2.45  46 2.45  29 2.47  30 2.51   9 2.52  36 2.56  32 2.56
                            47 2.61
  63  0.188  0.862  0.176-   2 2.48  26 2.52  33 2.55  24 2.55   3 2.57  13 2.58  27 2.59   5 2.59
                            64 2.60  29 2.62  18 2.62  61 2.72  65 3.45  67 3.47
  64  0.010  0.809  0.249-  14 2.51   2 2.53  44 2.54  11 2.56  67 2.59  63 2.60  61 2.68  27 2.71
                            24 2.72
  65  0.520  0.970  0.239-  33 2.45  13 2.45  38 2.46  24 2.49  11 2.50  39 2.52  14 2.53   2 2.59
                            61 3.41  63 3.45
  66  0.685  0.470  0.094-  70 2.52  41 2.54  22 2.57  28 2.57  45 2.58  15 2.58  12 2.59  35 2.59
                            51 2.61  25 2.62  58 2.72  57 2.84
  67  0.187  0.643  0.244-  26 2.52   1 2.52  24 2.53  59 2.53  27 2.57  64 2.59  23 2.59  44 2.63
                            68 2.72  63 3.47
  68  0.180  0.529  0.165-  53 2.49  22 2.50  27 2.51  10 2.54  45 2.54  35 2.55   1 2.57  26 2.60
                            60 2.65  25 2.67  67 2.72  59 2.75
  69  0.189  0.194  0.028-   7 2.50  42 2.52  30 2.52  20 2.53  37 2.53  40 2.55  50 2.57  52 2.59
                            71 2.61
  70  0.684  0.349  0.026-  52 2.51  12 2.51  40 2.52  66 2.52  28 2.53  20 2.55  37 2.57  57 2.75
                            41 2.76
  71  0.015  0.137  0.101-   5 2.48  21 2.49  28 2.50  49 2.54  50 2.55  52 2.56   4 2.57  34 2.58
                             3 2.58  42 2.59   7 2.61  69 2.61
 
  LATTYP: Found a simple orthorhombic cell.
 ALAT       =     7.7784981728
 B/A-ratio  =     1.6889770438
 C/A-ratio  =     3.6971751997
  
  Lattice vectors:
  
 A1 = (   7.7784981728,   0.0000000000,   0.0000000000)
 A2 = (   0.0000000000,  13.1377048492,   0.0000000000)
 A3 = (   0.0000000000,   0.0000000000,  28.7584705353)


Analysis of symmetry for initial positions (statically):
=====================================================================
 Subroutine PRICEL returns:
 Original cell was already a primitive cell.
 

 Routine SETGRP: Setting up the symmetry group for a 
 simple orthorhombic supercell.


 Subroutine GETGRP returns: Found  1 space group operations
 (whereof  1 operations were pure point group operations)
 out of a pool of  8 trial point group operations.


The static configuration has the point symmetry C_1 .


Analysis of symmetry for dynamics (positions and initial velocities):
=====================================================================
 Subroutine PRICEL returns:
 Original cell was already a primitive cell.
 

 Routine SETGRP: Setting up the symmetry group for a 
 simple orthorhombic supercell.


 Subroutine GETGRP returns: Found  1 space group operations
 (whereof  1 operations were pure point group operations)
 out of a pool of  8 trial point group operations.


The dynamic configuration has the point symmetry C_1 .


Analysis of constrained symmetry for selective dynamics:
=====================================================================
 Subroutine PRICEL returns:
 Original cell was already a primitive cell.
 

 Routine SETGRP: Setting up the symmetry group for a 
 simple orthorhombic supercell.


 Subroutine GETGRP returns: Found  1 space group operations
 (whereof  1 operations were pure point group operations)
 out of a pool of  8 trial point group operations.


The constrained configuration has the point symmetry C_1 .


Analysis of structural, dynamic, and magnetic symmetry:
=====================================================================
 Subroutine PRICEL returns:
 Original cell was already a primitive cell.
 

 Routine SETGRP: Setting up the symmetry group for a 
 simple orthorhombic supercell.


 Subroutine GETGRP returns: Found  1 space group operations
 (whereof  1 operations were pure point group operations)
 out of a pool of  8 trial point group operations.


The magnetic configuration has the point symmetry C_1 .


 Subroutine INISYM returns: Found  1 space group operations
 (whereof  1 operations are pure point group operations),
 and found     1 'primitive' translations

 
 
 KPOINTS: k-points                                

Automatic generation of k-mesh.
Space group operators:
 irot       det(A)        alpha          n_x          n_y          n_z        tau_x        tau_y        tau_z
    1     1.000000     0.000000     1.000000     0.000000     0.000000     0.000000     0.000000     0.000000
 
 Subroutine IBZKPT returns following result:
 ===========================================
 
 Found      8 irreducible k-points:
 
 Following reciprocal coordinates:
            Coordinates               Weight
  0.125000  0.125000  0.000000      2.000000
  0.375000  0.125000  0.000000      2.000000
 -0.375000  0.125000  0.000000      2.000000
 -0.125000  0.125000  0.000000      2.000000
  0.125000  0.375000  0.000000      2.000000
  0.375000  0.375000  0.000000      2.000000
 -0.375000  0.375000  0.000000      2.000000
 -0.125000  0.375000  0.000000      2.000000
 
 Following cartesian coordinates:
            Coordinates               Weight
  0.016070  0.009515  0.000000      2.000000
  0.048210  0.009515  0.000000      2.000000
 -0.048210  0.009515  0.000000      2.000000
 -0.016070  0.009515  0.000000      2.000000
  0.016070  0.028544  0.000000      2.000000
  0.048210  0.028544  0.000000      2.000000
 -0.048210  0.028544  0.000000      2.000000
 -0.016070  0.028544  0.000000      2.000000
 


--------------------------------------------------------------------------------------------------------




 Dimension of arrays:
   k-points           NKPTS =      8   k-points in BZ     NKDIM =      8   number of bands    NBANDS=    440
   number of dos      NEDOS =    301   number of ions     NIONS =     71
   non local maximal  LDIM  =      6   non local SUM 2l+1 LMDIM =     18
   total plane-waves  NPLWV = 691200
   max r-space proj   IRMAX =   3792   max aug-charges    IRDMAX=  13623
   dimension x,y,z NGX =    48 NGY =   80 NGZ =  180
   dimension x,y,z NGXF=    96 NGYF=  160 NGZF=  360
   support grid    NGXF=    96 NGYF=  160 NGZF=  360
   ions per type =              53   5  13
 NGX,Y,Z   is equivalent  to a cutoff of  10.26, 10.12, 10.41 a.u.
 NGXF,Y,Z  is equivalent  to a cutoff of  20.52, 20.25, 20.81 a.u.


 I would recommend the setting:
   dimension x,y,z NGX =    47 NGY =   79 NGZ =  172
 SYSTEM =  (110) surface                           
 POSCAR =  Ni Nb  W                                

 Startparameter for this run:
   NWRITE =      2    write-flag & timer
   PREC   = normal    normal or accurate (medium, high low for compatibility)
   ISTART =      0    job   : 0-new  1-cont  2-samecut
   ICHARG =      2    charge: 1-file 2-atom 10-const
   ISPIN  =      2    spin polarized calculation?
   LNONCOLLINEAR =      F non collinear calculations
   LSORBIT =      F    spin-orbit coupling
   INIWAV =      1    electr: 0-lowe 1-rand  2-diag
   LASPH  =      F    aspherical Exc in radial PAW
   METAGGA=      F    non-selfconsistent MetaGGA calc.

 Electronic Relaxation 1
   ENCUT  =  600.0 eV  44.10 Ry    6.64 a.u.  15.54 26.24 57.44*2*pi/ulx,y,z
   ENINI  =  600.0     initial cutoff
   ENAUG  =  544.6 eV  augmentation charge cutoff
   NELM   =    150;   NELMIN=  8; NELMDL= -5     # of ELM steps 
   EDIFF  = 0.1E-05   stopping-criterion for ELM
   LREAL  =      T    real-space projection
   NLSPLINE    = F    spline interpolate recip. space projectors
   LCOMPAT=      F    compatible to vasp.4.4
   GGA_COMPAT  = T    GGA compatible to vasp.4.4-vasp.4.6
   LMAXPAW     = -100 max onsite density
   LMAXMIX     =    2 max onsite mixed and CHGCAR
   VOSKOWN=      0    Vosko Wilk Nusair interpolation
   ROPT   =   -0.00050  -0.00050  -0.00050
 Ionic relaxation
   EDIFFG = -.1E-01   stopping-criterion for IOM
   NSW    =      0    number of steps for IOM
   NBLOCK =      1;   KBLOCK =      1    inner block; outer block 
   IBRION =     -1    ionic relax: 0-MD 1-quasi-New 2-CG
   NFREE  =      0    steps in history (QN), initial steepest desc. (CG)
   ISIF   =      2    stress and relaxation
   IWAVPR =     10    prediction:  0-non 1-charg 2-wave 3-comb
   ISYM   =      2    0-nonsym 1-usesym 2-fastsym
   LCORR  =      T    Harris-Foulkes like correction to forces

   POTIM  = 0.1000    time-step for ionic-motion
   TEIN   =    0.0    initial temperature
   TEBEG  =    0.0;   TEEND  =   0.0 temperature during run
   SMASS  =  -3.00    Nose mass-parameter (am)
   estimated Nose-frequenzy (Omega)   =  0.10E-29 period in steps =****** mass=  -0.138E-26a.u.
   SCALEE = 1.0000    scale energy and forces
   NPACO  =    256;   APACO  = 16.0  distance and # of slots for P.C.
   PSTRESS=    0.0 pullay stress

  Mass of Ions in am
   POMASS =  58.69 92.91183.85
  Ionic Valenz
   ZVAL   =  10.00 13.00  6.00
  Atomic Wigner-Seitz radii
   RWIGS  =  -1.00 -1.00 -1.00
  virtual crystal weights 
   VCA    =   1.00  1.00  1.00
   NELECT =     673.0000    total number of electrons
   NUPDOWN=      -1.0000    fix difference up-down

 DOS related values:
   EMIN   =  10.00;   EMAX   =-10.00  energy-range for DOS
   EFERMI =   0.00
   ISMEAR =     2;   SIGMA  =   0.20  broadening in eV -4-tet -1-fermi 0-gaus

 Electronic relaxation 2 (details)
   IALGO  =     68    algorithm
   LDIAG  =      T    sub-space diagonalisation (order eigenvalues)
   LSUBROT=      F    optimize rotation matrix (better conditioning)
   TURBO    =      0    0=normal 1=particle mesh
   IRESTART =      0    0=no restart 2=restart with 2 vectors
   NREBOOT  =      0    no. of reboots
   NMIN     =      0    reboot dimension
   EREF     =   0.00    reference energy to select bands
   IMIX   =      4    mixing-type and parameters
     AMIX     =   0.40;   BMIX     =  1.00
     AMIX_MAG =   1.60;   BMIX_MAG =  1.00
     AMIN     =   0.10
     WC   =   100.;   INIMIX=   1;  MIXPRE=   1;  MAXMIX= -45

 Intra band minimization:
   WEIMIN = 0.0000     energy-eigenvalue tresh-hold
   EBREAK =  0.57E-09  absolut break condition
   DEPER  =   0.30     relativ break condition  

   TIME   =   0.40     timestep for ELM

  volume/ion in A,a.u.               =      41.39       279.33
  Fermi-wavevector in a.u.,A,eV,Ry     =   1.001581  1.892714 13.648888  1.003165
  Thomas-Fermi vector in A             =   2.134013
 
 Write flags
   LWAVE  =      F    write WAVECAR
   LCHARG =      F    write CHGCAR
   LVTOT  =      F    write LOCPOT, total local potential
   LVHAR  =      F    write LOCPOT, Hartree potential only
   LELF   =      F    write electronic localiz. function (ELF)
   LORBIT =      0    0 simple, 1 ext, 2 COOP (PROOUT)


 Dipole corrections
   LMONO  =      F    monopole corrections only (constant potential shift)
   LDIPOL =      F    correct potential (dipole corrections)
   IDIPOL =      0    1-x, 2-y, 3-z, 4-all directions 
   EPSILON=  1.0000000 bulk dielectric constant

 Exchange correlation treatment:
   GGA     =    --    GGA type
   LEXCH   =     8    internal setting for exchange type
   VOSKOWN=      0    Vosko Wilk Nusair interpolation
   LHFCALC =     F    Hartree Fock is set to
   LHFONE  =     F    Hartree Fock one center treatment
   AEXX    =    0.0000 exact exchange contribution

 Linear response parameters
   LEPSILON=     F    determine dielectric tensor
   LRPA    =     F    only Hartree local field effects (RPA)
   LNABLA  =     F    use nabla operator in PAW spheres
   LVEL    =     F    velocity operator in full k-point grid
   LINTERFAST=   F  fast interpolation
   KINTER  =     0    interpolate to denser k-point grid
   CSHIFT  =0.1000    complex shift for real part using Kramers Kronig
   OMEGAMAX=  -1.0    maximum frequency
   DEG_THRESHOLD= 0.2000000E-02 threshold for treating states as degnerate
   RTIME   =    0.100 relaxation time in fs

 Orbital magnetization related:
   ORBITALMAG=     F  switch on orbital magnetization
   LCHIMAG   =     F  perturbation theory with respect to B field
   DQ        =  0.001000  dq finite difference perturbation B field



--------------------------------------------------------------------------------------------------------


 Static calculation
 charge density and potential will be updated during run
 spin polarized calculation
 RMM-DIIS sequential band-by-band and
  variant of blocked Davidson during initial phase
 perform sub-space diagonalisation
    before iterative eigenvector-optimisation
 modified Broyden-mixing scheme, WC =      100.0
 initial mixing is a Kerker type mixing with AMIX =  0.4000 and BMIX =      1.0000
 Hartree-type preconditioning will be used
 using additional bands          103
 real space projection scheme for non local part
 use partial core corrections
 calculate Harris-corrections to forces 
   (improved forces if not selfconsistent)
 use gradient corrections 
 use of overlap-Matrix (Vanderbilt PP)
 Methfessel and Paxton  Order N= 2 SIGMA  =   0.20


--------------------------------------------------------------------------------------------------------


  energy-cutoff  :      600.00
  volume of cell :     2938.87
      direct lattice vectors                 reciprocal lattice vectors
     7.778498173  0.000000000  0.000000000     0.128559521  0.000000000  0.000000000
     0.000000000 13.137704849  0.000000000     0.000000000  0.076116796  0.000000000
     0.000000000  0.000000000 28.758470535     0.000000000  0.000000000  0.034772364

  length of vectors
     7.778498173 13.137704849 28.758470535     0.128559521  0.076116796  0.034772364


 
 k-points in units of 2pi/SCALE and weight: k-points                                
   0.01606994  0.00951460  0.00000000       0.125
   0.04820982  0.00951460  0.00000000       0.125
  -0.04820982  0.00951460  0.00000000       0.125
  -0.01606994  0.00951460  0.00000000       0.125
   0.01606994  0.02854380  0.00000000       0.125
   0.04820982  0.02854380  0.00000000       0.125
  -0.04820982  0.02854380  0.00000000       0.125
  -0.01606994  0.02854380  0.00000000       0.125
 
 k-points in reciprocal lattice and weights: k-points                                
   0.12500000  0.12500000  0.00000000       0.125
   0.37500000  0.12500000  0.00000000       0.125
  -0.37500000  0.12500000  0.00000000       0.125
  -0.12500000  0.12500000  0.00000000       0.125
   0.12500000  0.37500000  0.00000000       0.125
   0.37500000  0.37500000  0.00000000       0.125
  -0.37500000  0.37500000  0.00000000       0.125
  -0.12500000  0.37500000  0.00000000       0.125
 
 position of ions in fractional coordinates (direct lattice) 
   0.01677874  0.48028891  0.23954171
   0.18820179  0.97054280  0.24685784
   0.01574459  0.02903905  0.17629135
   0.17649377  0.19608488  0.17451447
   0.18015205  0.97593545  0.10274937
   0.86893976  0.31452601  0.23834747
   0.18185604  0.30932552  0.09726507
   0.51983291  0.19771132  0.17324775
   0.69174629  0.70353079  0.02474701
   0.01981753  0.36131998  0.16839133
   0.68110895  0.80569113  0.24361912
   0.51774710  0.29964626  0.09743019
   0.34813567  0.03396624  0.17342784
   0.84396355  0.97279193  0.24610250
   0.84975159  0.64034343  0.09611478
   0.69331140  0.48248299  0.23896314
   0.68849218  0.69499942  0.16989713
   0.01706562  0.80960392  0.10122276
   0.01854145  0.70249915  0.02756251
   0.35722980  0.35799846  0.02523561
   0.84945476  0.97503240  0.09999980
   0.01473417  0.47088006  0.09566164
   0.52042141  0.64425825  0.24079852
   0.35864406  0.80695387  0.24779236
   0.52282944  0.52697314  0.16943865
   0.35395744  0.69743397  0.17287151
   0.01625573  0.69330878  0.17080726
   0.85340101  0.30194870  0.09793551
   0.34136507  0.80951512  0.09855519
   0.34221569  0.02505720  0.03075818
   0.18347412  0.32048854  0.24204530
   0.84868544  0.86561239  0.02883669
   0.51473245  0.85988790  0.16976986
   0.68406248  0.13931978  0.09872251
   0.85224271  0.52896216  0.16717820
   0.34826052  0.70073599  0.02297433
   0.01460779  0.35665453  0.02537953
   0.68281595  0.03209589  0.17112052
   0.68001930  0.13595983  0.24369676
   0.51575571  0.18565848  0.02818314
   0.85233480  0.53454304  0.02420950
   0.34758893  0.14039043  0.10047844
   0.69231445  0.80715913  0.09830730
   0.84899856  0.64228343  0.24112725
   0.35363471  0.47321785  0.09489550
   0.68127644  0.02587022  0.02861967
   0.18514094  0.86345625  0.02970118
   0.51638256  0.97575787  0.10001558
   0.84355951  0.19639710  0.17180426
   0.02116681  0.02542408  0.02909101
   0.68895207  0.36031863  0.16981073
   0.85591453  0.18764234  0.02693425
   0.17837599  0.64452368  0.09640931
   0.56134826  0.31537517  0.25167319
   0.17667772  0.52758628  0.02393096
   0.99518547  0.14188959  0.25280766
   0.53659064  0.53547454  0.00882442
   0.50784022  0.64876383  0.09540285
   0.35688919  0.47873863  0.24487453
   0.35604882  0.35612617  0.16992368
   0.83886060  0.86618166  0.17223811
   0.52003181  0.86542088  0.03216955
   0.18784221  0.86175404  0.17624557
   0.00964468  0.80938376  0.24884207
   0.51960208  0.96965077  0.23860950
   0.68470490  0.47014680  0.09402694
   0.18749694  0.64340585  0.24391425
   0.18044138  0.52910314  0.16521986
   0.18877402  0.19379635  0.02819043
   0.68436050  0.34922993  0.02600386
   0.01505429  0.13731945  0.10149613
 
 position of ions in cartesian coordinates  (Angst):
   0.13051343  6.30989397  6.88885318
   1.46392729 12.75070481  7.09925378
   0.12246928  0.38150652  5.06986970
   1.37285650  2.57610527  5.01876938
   1.40131236 12.82155188  2.95491475
   6.75904635  4.13214986  6.85450880
   1.41456684  4.06382733  2.79719471
   4.04351935  2.59747295  4.98234024
   5.38074728  9.24277985  0.71168616
   0.15415063  4.74691530  4.84267723
   5.29800475 10.58493225  7.00611338
   4.02729490  3.93666410  2.80194331
   2.70797264  0.44623849  4.98751941
   6.56476892 12.78025321  7.07753146
   6.60979121  8.41264296  2.76411398
   5.39292143  6.33871912  6.87221436
   5.35543513  9.13069727  4.88598175
   0.13274488 10.63633740  2.91101179
   0.14422466  9.22922650  0.79265557
   2.77871134  4.70327812  0.72573760
   6.60748229 12.80968785  2.87584144
   0.11460971  6.18628326  2.75108246
   4.04809700  8.46407478  6.92499710
   2.78971217 10.60152171  7.12612942
   4.06682782  6.92321764  4.87279633
   2.75325732  9.16268161  4.97152019
   0.12644517  9.10848618  4.91215550
   6.63817816  3.96691285  2.81647533
   2.65530757 10.63517070  2.83429638
   2.66192410  0.32919415  0.88455827
   1.42715307  4.21048391  6.96085254
   6.60149817 11.37216007  0.82929898
   4.00384542 11.29695337  4.88232149
   5.32097876  1.83034211  2.83910840
   6.62916837  6.94934868  4.80778936
   2.70894383  9.20606256  0.66070651
   0.11362668  4.68562188  0.72987655
   5.31128261  0.42166630  4.92116441
   5.28952885  1.78620012  7.00834603
   4.01180487  2.43912638  0.81050394
   6.62988466  7.02266865  0.69622822
   2.70371985  1.84440807  2.88960634
   5.38516665 10.60421836  2.82716771
   6.60393377  8.43813008  6.93445087
   2.75074698  6.21699638  2.72904956
   5.29930755  0.33987533  0.82305802
   1.44011845 11.34383335  0.85416062
   4.01668081 12.81921893  2.87629503
   6.56162608  2.58020720  4.94082775
   0.16464597  0.33401409  0.83661310
   5.35901243  4.73375985  4.88349682
   6.65772963  2.46518963  0.77458786
   1.38749730  8.46756188  2.77258419
   4.36644642  4.14330586  7.23773606
   1.37428731  6.93127284  0.68821769
   7.74104837  1.86410357  7.27036153
   4.17386928  7.03490645  0.25377674
   3.95023419  8.52326778  2.74364011
   2.77606188  6.28952688  7.04221709
   2.76952508  4.67868048  4.88674510
   6.52507565 11.37963899  4.95330452
   4.04506648 11.36964407  0.92514697
   1.46113031 11.32147017  5.06855317
   0.07502109 10.63344491  7.15631743
   4.04172387 12.73898556  6.86204424
   5.32597581  6.17664996  2.70407093
   1.45844462  8.45287610  7.01460078
   1.40356294  6.95120087  4.75147043
   1.46837836  2.54603927  0.81071371
   5.32329693  4.58807977  0.74783136
   0.11709976  1.80406240  2.91887335
 


--------------------------------------------------------------------------------------------------------


 k-point  1 :   0.1250 0.1250 0.0000  plane waves:   98110
 k-point  2 :   0.3750 0.1250 0.0000  plane waves:   98013
 k-point  3 :  -0.3750 0.1250 0.0000  plane waves:   98013
 k-point  4 :  -0.1250 0.1250 0.0000  plane waves:   98110
 k-point  5 :   0.1250 0.3750 0.0000  plane waves:   98128
 k-point  6 :   0.3750 0.3750 0.0000  plane waves:   98036
 k-point  7 :  -0.3750 0.3750 0.0000  plane waves:   98036
 k-point  8 :  -0.1250 0.3750 0.0000  plane waves:   98128

 maximum and minimum number of plane-waves per node :      4107     4059

 maximum number of plane-waves:     98128
 maximum index in each direction: 
   IXMAX=   15   IYMAX=   26   IZMAX=   57
   IXMIN=  -15   IYMIN=  -26   IZMIN=  -57

 WARNING: aliasing errors must be expected set NGX to  62 to avoid them
 WARNING: aliasing errors must be expected set NGY to 106 to avoid them
 WARNING: aliasing errors must be expected set NGZ to 230 to avoid them
 aliasing errors are usually negligible using standard VASP settings
 and one can safely disregard these warnings

 real space projection operators:
  total allocation   :      25081.88 KBytes
  max/ min on nodes  :       1191.66        876.38


 parallel 3D FFT for wavefunctions:
    minimum data exchange during FFTs selected (reduces bandwidth)
 parallel 3D FFT for charge:
    minimum data exchange during FFTs selected (reduces bandwidth)


 total amount of memory used by VASP on root node   162951. kBytes
========================================================================

   base      :      30000. kBytes
   nonlr-proj:       5729. kBytes
   fftplans  :       2917. kBytes
   grid      :       7405. kBytes
   one-center:         93. kBytes
   wavefun   :     116807. kBytes
 
     INWAV:  cpu time    0.0000: real time    0.0000
 Broyden mixing: mesh for mixing (old mesh)
   NGX = 31   NGY = 53   NGZ =115
  (NGX  = 96   NGY  =160   NGZ  =360)
  gives a total of 188945 points

 initial charge density was supplied:
 charge density of overlapping atoms calculated
 number of electron     673.0000000 magnetization      71.0000000
 keeping initial charge density in first step


--------------------------------------------------------------------------------------------------------


 Maximum index for non-local projection operator          288
 Maximum index for augmentation-charges          666 (set IRDMAX)


--------------------------------------------------------------------------------------------------------


 First call to EWALD:  gamma=   0.124
 Maximum number of real-space cells 5x 3x 2
 Maximum number of reciprocal cells 2x 3x 5

 FEWALD executed in parallel
    FEWALD:  cpu time    0.0024: real time    0.0024


----------------------------------------- Iteration    1(   1)  ---------------------------------------


    POTLOK:  cpu time    0.0989: real time    0.1045
    SETDIJ:  cpu time    0.0163: real time    0.0177
     EDDAV:  cpu time   27.9184: real time   27.9624
       DOS:  cpu time    0.0052: real time    0.0052
    --------------------------------------------
      LOOP:  cpu time   28.0432: real time   28.0992

 eigenvalue-minimisations  : 14208
 total energy-change (2. order) : 0.5999707E+04  (-0.3048364E+05)
 number of electron     673.0000000 magnetization      71.0000000
 augmentation part      673.0000000 magnetization      71.0000000

 Free energy of the ion-electron system (eV)
  ---------------------------------------------------
  alpha Z        PSCENC =      1716.51401600
  Ewald energy   TEWEN  =    437806.50800252
  -Hartree energ DENC   =   -502202.44055933
  -exchange      EXHF   =         0.00000000
  -V(xc)+E(xc)   XCENC  =      1328.09051872
  PAW double counting   =     55449.09725743   -58125.83629174
  entropy T*S    EENTRO =        -0.00678610
  eigenvalues    EBANDS =      2463.18414858
  atomic energy  EATOM  =     67564.59709734
  Solvation  Ediel_sol  =         0.00000000
  ---------------------------------------------------
  free energy    TOTEN  =      5999.70740342 eV

  energy without entropy =     5999.71418952  energy(sigma->0) =     5999.70909995


--------------------------------------------------------------------------------------------------------




----------------------------------------- Iteration    1(   2)  ---------------------------------------


     EDDAV:  cpu time   27.5075: real time   27.5177
       DOS:  cpu time    0.0051: real time    0.0051
    --------------------------------------------
      LOOP:  cpu time   27.5140: real time   27.5309

 eigenvalue-minimisations  : 14080
 total energy-change (2. order) :-0.5752925E+04  (-0.5464380E+04)
 number of electron     673.0000000 magnetization      71.0000000
 augmentation part      673.0000000 magnetization      71.0000000

 Free energy of the ion-electron system (eV)
  ---------------------------------------------------
  alpha Z        PSCENC =      1716.51401600
  Ewald energy   TEWEN  =    437806.50800252
  -Hartree energ DENC   =   -502202.44055933
  -exchange      EXHF   =         0.00000000
  -V(xc)+E(xc)   XCENC  =      1328.09051872
  PAW double counting   =     55449.09725743   -58125.83629174
  entropy T*S    EENTRO =        -0.01351390
  eigenvalues    EBANDS =     -3289.73459168
  atomic energy  EATOM  =     67564.59709734
  Solvation  Ediel_sol  =         0.00000000
  ---------------------------------------------------
  free energy    TOTEN  =       246.78193536 eV

  energy without entropy =      246.79544926  energy(sigma->0) =      246.78531384


--------------------------------------------------------------------------------------------------------




----------------------------------------- Iteration    1(   3)  ---------------------------------------


     EDDAV:  cpu time   30.9528: real time   30.9653
       DOS:  cpu time    0.0054: real time    0.0054
    --------------------------------------------
      LOOP:  cpu time   30.9594: real time   30.9779

 eigenvalue-minimisations  : 16344
 total energy-change (2. order) :-0.6950300E+03  (-0.6362854E+03)
 number of electron     673.0000000 magnetization      71.0000000
 augmentation part      673.0000000 magnetization      71.0000000

 Free energy of the ion-electron system (eV)
  ---------------------------------------------------
  alpha Z        PSCENC =      1716.51401600
  Ewald energy   TEWEN  =    437806.50800252
  -Hartree energ DENC   =   -502202.44055933
  -exchange      EXHF   =         0.00000000
  -V(xc)+E(xc)   XCENC  =      1328.09051872
  PAW double counting   =     55449.09725743   -58125.83629174
  entropy T*S    EENTRO =        -0.03016699
  eigenvalues    EBANDS =     -3984.74792026
  atomic energy  EATOM  =     67564.59709734
  Solvation  Ediel_sol  =         0.00000000
  ---------------------------------------------------
  free energy    TOTEN  =      -448.24804631 eV

  energy without entropy =     -448.21787931  energy(sigma->0) =     -448.24050456


--------------------------------------------------------------------------------------------------------




----------------------------------------- Iteration    1(   4)  ---------------------------------------


     EDDAV:  cpu time   38.2656: real time   38.2787
       DOS:  cpu time    0.0055: real time    0.0055
    --------------------------------------------
      LOOP:  cpu time   38.2723: real time   38.2919

 eigenvalue-minimisations  : 21464
 total energy-change (2. order) :-0.9479453E+02  (-0.8572610E+02)
 number of electron     673.0000000 magnetization      71.0000000
 augmentation part      673.0000000 magnetization      71.0000000

 Free energy of the ion-electron system (eV)
  ---------------------------------------------------
  alpha Z        PSCENC =      1716.51401600
  Ewald energy   TEWEN  =    437806.50800252
  -Hartree energ DENC   =   -502202.44055933
  -exchange      EXHF   =         0.00000000
  -V(xc)+E(xc)   XCENC  =      1328.09051872
  PAW double counting   =     55449.09725743   -58125.83629174
  entropy T*S    EENTRO =         0.00047708
  eigenvalues    EBANDS =     -4079.57309709
  atomic energy  EATOM  =     67564.59709734
  Solvation  Ediel_sol  =         0.00000000
  ---------------------------------------------------
  free energy    TOTEN  =      -543.04257906 eV

  energy without entropy =     -543.04305614  energy(sigma->0) =     -543.04269833


--------------------------------------------------------------------------------------------------------




----------------------------------------- Iteration    1(   5)  ---------------------------------------


     EDDAV:  cpu time   41.3437: real time   41.3582
       DOS:  cpu time    0.0054: real time    0.0054
    CHARGE:  cpu time    0.6695: real time    0.6707
    MIXING:  cpu time    0.0052: real time    0.0067
    --------------------------------------------
      LOOP:  cpu time   42.0251: real time   42.0492

 eigenvalue-minimisations  : 23552
 total energy-change (2. order) :-0.9698746E+01  (-0.9390511E+01)
 number of electron     673.0000028 magnetization      68.5412334
 augmentation part      306.6148468 magnetization      59.1493217

 Broyden mixing:
  rms(total) = 0.10009E+02    rms(broyden)= 0.10009E+02
  rms(prec ) = 0.10247E+02
  weight for this iteration     100.00

 Free energy of the ion-electron system (eV)
  ---------------------------------------------------
  alpha Z        PSCENC =      1716.51401600
  Ewald energy   TEWEN  =    437806.50800252
  -Hartree energ DENC   =   -502202.44055933
  -exchange      EXHF   =         0.00000000
  -V(xc)+E(xc)   XCENC  =      1328.09051872
  PAW double counting   =     55449.09725743   -58125.83629174
  entropy T*S    EENTRO =         0.00175953
  eigenvalues    EBANDS =     -4089.27312551
  atomic energy  EATOM  =     67564.59709734
  Solvation  Ediel_sol  =         0.00000000
  ---------------------------------------------------
  free energy    TOTEN  =      -552.74132504 eV

  energy without entropy =     -552.74308456  energy(sigma->0) =     -552.74176492


--------------------------------------------------------------------------------------------------------




----------------------------------------- Iteration    1(   6)  ---------------------------------------


    POTLOK:  cpu time    0.0841: real time    0.0841
    SETDIJ:  cpu time    0.0104: real time    0.0104
    EDDIAG:  cpu time    4.2188: real time    4.2220
  RMM-DIIS:  cpu time   13.0206: real time   13.0258
    ORTHCH:  cpu time    1.5309: real time    1.5316
       DOS:  cpu time    0.0052: real time    0.0052
    CHARGE:  cpu time    0.6706: real time    0.6709
    MIXING:  cpu time    0.0039: real time    0.0065
    --------------------------------------------
      LOOP:  cpu time   19.5462: real time   19.5656

 eigenvalue-minimisations  : 17312
 total energy-change (2. order) :-0.1355626E+03  (-0.1127092E+03)
 number of electron     673.0000019 magnetization      66.6621450
 augmentation part      389.0320337 magnetization      55.9218033

 Broyden mixing:
  rms(total) = 0.10315E+02    rms(broyden)= 0.10315E+02
  rms(prec ) = 0.11235E+02
  weight for this iteration     100.00

 eigenvalues of (default mixing * dielectric matrix)
  average eigenvalue GAMMA=   0.4639
  0.4639

 Free energy of the ion-electron system (eV)
  ---------------------------------------------------
  alpha Z        PSCENC =      1716.51401600
  Ewald energy   TEWEN  =    437806.50800252
  -Hartree energ DENC   =   -500762.21617190
  -exchange      EXHF   =         0.00000000
  -V(xc)+E(xc)   XCENC  =      1253.02639563
  PAW double counting   =     57682.81481198   -60068.49044629
  entropy T*S    EENTRO =        -0.02218094
  eigenvalues    EBANDS =     -5881.03545665
  atomic energy  EATOM  =     67564.59709734
  Solvation  Ediel_sol  =         0.00000000
  ---------------------------------------------------
  free energy    TOTEN  =      -688.30393231 eV

  energy without entropy =     -688.28175137  energy(sigma->0) =     -688.29838707


--------------------------------------------------------------------------------------------------------




----------------------------------------- Iteration    1(   7)  ---------------------------------------


    POTLOK:  cpu time    0.0830: real time    0.0830
    SETDIJ:  cpu time    0.0093: real time    0.0093
    EDDIAG:  cpu time    4.3043: real time    4.3060
  RMM-DIIS:  cpu time   11.0044: real time   11.0079
    ORTHCH:  cpu time    1.5305: real time    1.5322
       DOS:  cpu time    0.0054: real time    0.0054
    CHARGE:  cpu time    0.6571: real time    0.6571
    MIXING:  cpu time    0.0027: real time    0.0032
    --------------------------------------------
      LOOP:  cpu time   17.5985: real time   17.6195

 eigenvalue-minimisations  : 14739
 total energy-change (2. order) : 0.1553453E+03  (-0.5678854E+02)
 number of electron     673.0000031 magnetization      65.2955917
 augmentation part      315.4259518 magnetization      47.9444164

 Broyden mixing:
  rms(total) = 0.92788E+01    rms(broyden)= 0.92787E+01
  rms(prec ) = 0.11391E+02
  weight for this iteration     100.00

 eigenvalues of (default mixing * dielectric matrix)
  average eigenvalue GAMMA=   0.5511
  0.8379  0.2643

 Free energy of the ion-electron system (eV)
  ---------------------------------------------------
  alpha Z        PSCENC =      1716.51401600
  Ewald energy   TEWEN  =    437806.50800252
  -Hartree energ DENC   =   -502110.50964878
  -exchange      EXHF   =         0.00000000
  -V(xc)+E(xc)   XCENC  =      1302.46487575
  PAW double counting   =     59882.57907024   -62618.80300423
  entropy T*S    EENTRO =        -0.00312648
  eigenvalues    EBANDS =     -4076.30595066
  atomic energy  EATOM  =     67564.59709734
  Solvation  Ediel_sol  =         0.00000000
  ---------------------------------------------------
  free energy    TOTEN  =      -532.95866830 eV

  energy without entropy =     -532.95554182  energy(sigma->0) =     -532.95788668


--------------------------------------------------------------------------------------------------------




----------------------------------------- Iteration    1(   8)  ---------------------------------------


    POTLOK:  cpu time    0.0826: real time    0.0826
    SETDIJ:  cpu time    0.0092: real time    0.0092
    EDDIAG:  cpu time    4.2252: real time    4.2280
  RMM-DIIS:  cpu time   12.2189: real time   12.2227
    ORTHCH:  cpu time    1.5292: real time    1.5295
       DOS:  cpu time    0.0054: real time    0.0054
    CHARGE:  cpu time    0.6758: real time    0.6761
    MIXING:  cpu time    0.0030: real time    0.0030
    --------------------------------------------
      LOOP:  cpu time   18.7510: real time   18.7655

 eigenvalue-minimisations  : 16263
 total energy-change (2. order) :-0.2280319E+03  (-0.1896379E+02)
 number of electron     673.0000026 magnetization      63.6830473
 augmentation part      310.8250628 magnetization      47.2452168

 Broyden mixing:
  rms(total) = 0.19360E+02    rms(broyden)= 0.19360E+02
  rms(prec ) = 0.24211E+02
  weight for this iteration     100.00

 eigenvalues of (default mixing * dielectric matrix)
  average eigenvalue GAMMA=   0.5167
  1.1742  0.2963  0.0797

 Free energy of the ion-electron system (eV)
  ---------------------------------------------------
  alpha Z        PSCENC =      1716.51401600
  Ewald energy   TEWEN  =    437806.50800252
  -Hartree energ DENC   =   -501810.99733756
  -exchange      EXHF   =         0.00000000
  -V(xc)+E(xc)   XCENC  =      1303.98146878
  PAW double counting   =     60685.07942314   -63438.00276971
  entropy T*S    EENTRO =         0.02159713
  eigenvalues    EBANDS =     -4588.69210863
  atomic energy  EATOM  =     67564.59709734
  Solvation  Ediel_sol  =         0.00000000
  ---------------------------------------------------
  free energy    TOTEN  =      -760.99061099 eV

  energy without entropy =     -761.01220812  energy(sigma->0) =     -760.99601027


--------------------------------------------------------------------------------------------------------




----------------------------------------- Iteration    1(   9)  ---------------------------------------


    POTLOK:  cpu time    0.0828: real time    0.0828
    SETDIJ:  cpu time    0.0093: real time    0.0093
    EDDIAG:  cpu time    4.2989: real time    4.3001
  RMM-DIIS:  cpu time   11.8079: real time   11.8117
    ORTHCH:  cpu time    1.5311: real time    1.5322
       DOS:  cpu time    0.0054: real time    0.0054
    CHARGE:  cpu time    0.6635: real time    0.6635
    MIXING:  cpu time    0.0030: real time    0.0036
    --------------------------------------------
      LOOP:  cpu time   18.4034: real time   18.4168

 eigenvalue-minimisations  : 15757
 total energy-change (2. order) : 0.1757008E+03  (-0.1822225E+02)
 number of electron     672.9999990 magnetization      62.6247191
 augmentation part      334.4511312 magnetization      44.5293906

 Broyden mixing:
  rms(total) = 0.12925E+02    rms(broyden)= 0.12925E+02
  rms(prec ) = 0.14617E+02
  weight for this iteration     100.00

 eigenvalues of (default mixing * dielectric matrix)
  average eigenvalue GAMMA=   0.4703
  1.3649  0.3262  0.0951  0.0951

 Free energy of the ion-electron system (eV)
  ---------------------------------------------------
  alpha Z        PSCENC =      1716.51401600
  Ewald energy   TEWEN  =    437806.50800252
  -Hartree energ DENC   =   -501669.11584220
  -exchange      EXHF   =         0.00000000
  -V(xc)+E(xc)   XCENC  =      1300.21635059
  PAW double counting   =     61441.52116713   -64190.72511793
  entropy T*S    EENTRO =         0.01113945
  eigenvalues    EBANDS =     -4554.81662301
  atomic energy  EATOM  =     67564.59709734
  Solvation  Ediel_sol  =         0.00000000
  ---------------------------------------------------
  free energy    TOTEN  =      -585.28981011 eV

  energy without entropy =     -585.30094956  energy(sigma->0) =     -585.29259497


--------------------------------------------------------------------------------------------------------




----------------------------------------- Iteration    1(  10)  ---------------------------------------


    POTLOK:  cpu time    0.0828: real time    0.0828
    SETDIJ:  cpu time    0.0092: real time    0.0092
    EDDIAG:  cpu time    4.2197: real time    4.2217
  RMM-DIIS:  cpu time   11.9213: real time   11.9252
    ORTHCH:  cpu time    1.5296: real time    1.5298
       DOS:  cpu time    0.0052: real time    0.0052
    CHARGE:  cpu time    0.6790: real time    0.6793
    MIXING:  cpu time    0.0031: real time    0.0031
    --------------------------------------------
      LOOP:  cpu time   18.4514: real time   18.4653

 eigenvalue-minimisations  : 15971
 total energy-change (2. order) : 0.7280358E+02  (-0.9894278E+01)
 number of electron     673.0000020 magnetization      61.2492615
 augmentation part      353.6945359 magnetization      43.5324071

 Broyden mixing:
  rms(total) = 0.62283E+01    rms(broyden)= 0.62282E+01
  rms(prec ) = 0.68490E+01
  weight for this iteration     100.00

 eigenvalues of (default mixing * dielectric matrix)
  average eigenvalue GAMMA=   0.4669
  1.5607  0.4023  0.1482  0.1482  0.0752

 Free energy of the ion-electron system (eV)
  ---------------------------------------------------
  alpha Z        PSCENC =      1716.51401600
  Ewald energy   TEWEN  =    437806.50800252
  -Hartree energ DENC   =   -501526.24658758
  -exchange      EXHF   =         0.00000000
  -V(xc)+E(xc)   XCENC  =      1297.49376593
  PAW double counting   =     61899.92631593   -64644.13786572
  entropy T*S    EENTRO =         0.00125712
  eigenvalues    EBANDS =     -4627.14223455
  atomic energy  EATOM  =     67564.59709734
  Solvation  Ediel_sol  =         0.00000000
  ---------------------------------------------------
  free energy    TOTEN  =      -512.48623301 eV

  energy without entropy =     -512.48749012  energy(sigma->0) =     -512.48654729


--------------------------------------------------------------------------------------------------------




----------------------------------------- Iteration    1(  11)  ---------------------------------------


    POTLOK:  cpu time    0.0829: real time    0.0829
    SETDIJ:  cpu time    0.0093: real time    0.0093
    EDDIAG:  cpu time    4.3002: real time    4.3021
  RMM-DIIS:  cpu time   11.4708: real time   11.4747
    ORTHCH:  cpu time    1.5299: real time    1.5305
       DOS:  cpu time    0.0052: real time    0.0052
    CHARGE:  cpu time    0.6608: real time    0.6611
    MIXING:  cpu time    0.0032: real time    0.0032
    --------------------------------------------
      LOOP:  cpu time   18.0639: real time   18.0769

 eigenvalue-minimisations  : 15379
 total energy-change (2. order) : 0.3232714E+02  (-0.5309669E+01)
 number of electron     673.0000030 magnetization      59.6941129
 augmentation part      358.1792423 magnetization      41.6641300

 Broyden mixing:
  rms(total) = 0.45640E+01    rms(broyden)= 0.45639E+01
  rms(prec ) = 0.51075E+01
  weight for this iteration     100.00

 eigenvalues of (default mixing * dielectric matrix)
  average eigenvalue GAMMA=   0.4720
  1.7212  0.4876  0.2154  0.2154  0.1152  0.0773

 Free energy of the ion-electron system (eV)
  ---------------------------------------------------
  alpha Z        PSCENC =      1716.51401600
  Ewald energy   TEWEN  =    437806.50800252
  -Hartree energ DENC   =   -501578.05769825
  -exchange      EXHF   =         0.00000000
  -V(xc)+E(xc)   XCENC  =      1299.66252508
  PAW double counting   =     62597.93170574   -65362.56200605
  entropy T*S    EENTRO =        -0.00634901
  eigenvalues    EBANDS =     -4524.74638446
  atomic energy  EATOM  =     67564.59709734
  Solvation  Ediel_sol  =         0.00000000
  ---------------------------------------------------
  free energy    TOTEN  =      -480.15909108 eV

  energy without entropy =     -480.15274207  energy(sigma->0) =     -480.15750383


--------------------------------------------------------------------------------------------------------




----------------------------------------- Iteration    1(  12)  ---------------------------------------


    POTLOK:  cpu time    0.0882: real time    0.0882
    SETDIJ:  cpu time    0.0093: real time    0.0093
    EDDIAG:  cpu time    4.2144: real time    4.2157
  RMM-DIIS:  cpu time   11.6220: real time   11.6259
    ORTHCH:  cpu time    1.5307: real time    1.5324
       DOS:  cpu time    0.0051: real time    0.0051
    CHARGE:  cpu time    0.6769: real time    0.6771
    MIXING:  cpu time    0.0033: real time    0.0033
    --------------------------------------------
      LOOP:  cpu time   18.1514: real time   18.1598

 eigenvalue-minimisations  : 15490
 total energy-change (2. order) : 0.1777945E+02  (-0.2018113E+01)
 number of electron     673.0000019 magnetization      57.8080827
 augmentation part      352.8281325 magnetization      39.1992124

 Broyden mixing:
  rms(total) = 0.39077E+01    rms(broyden)= 0.39076E+01
  rms(prec ) = 0.45629E+01
  weight for this iteration     100.00

 eigenvalues of (default mixing * dielectric matrix)
  average eigenvalue GAMMA=   0.4705
  1.8254  0.4948  0.3126  0.3126  0.1357  0.1357  0.0762

 Free energy of the ion-electron system (eV)
  ---------------------------------------------------
  alpha Z        PSCENC =      1716.51401600
  Ewald energy   TEWEN  =    437806.50800252
  -Hartree energ DENC   =   -501830.28169381
  -exchange      EXHF   =         0.00000000
  -V(xc)+E(xc)   XCENC  =      1303.48489094
  PAW double counting   =     63316.46733644   -66107.74982425
  entropy T*S    EENTRO =        -0.01151690
  eigenvalues    EBANDS =     -4231.90795124
  atomic energy  EATOM  =     67564.59709734
  Solvation  Ediel_sol  =         0.00000000
  ---------------------------------------------------
  free energy    TOTEN  =      -462.37964296 eV

  energy without entropy =     -462.36812606  energy(sigma->0) =     -462.37676373


--------------------------------------------------------------------------------------------------------




----------------------------------------- Iteration    1(  13)  ---------------------------------------


    POTLOK:  cpu time    0.0981: real time    0.0981
    SETDIJ:  cpu time    0.0092: real time    0.0092
    EDDIAG:  cpu time    4.3015: real time    4.3037
  RMM-DIIS:  cpu time   11.9555: real time   11.9595
    ORTHCH:  cpu time    1.5299: real time    1.5306
       DOS:  cpu time    0.0052: real time    0.0052
    CHARGE:  cpu time    0.6623: real time    0.6625
    MIXING:  cpu time    0.0035: real time    0.0035
    --------------------------------------------
      LOOP:  cpu time   18.5668: real time   18.5808

 eigenvalue-minimisations  : 16021
 total energy-change (2. order) : 0.1184063E+02  (-0.1387160E+01)
 number of electron     673.0000022 magnetization      56.2275859
 augmentation part      347.2291674 magnetization      36.6736201

 Broyden mixing:
  rms(total) = 0.33417E+01    rms(broyden)= 0.33417E+01
  rms(prec ) = 0.37444E+01
  weight for this iteration     100.00

 eigenvalues of (default mixing * dielectric matrix)
  average eigenvalue GAMMA=   0.4656
  1.9091  0.4961  0.4961  0.3098  0.0763  0.1586  0.1586  0.1206

 Free energy of the ion-electron system (eV)
  ---------------------------------------------------
  alpha Z        PSCENC =      1716.51401600
  Ewald energy   TEWEN  =    437806.50800252
  -Hartree energ DENC   =   -501982.85011190
  -exchange      EXHF   =         0.00000000
  -V(xc)+E(xc)   XCENC  =      1308.23539543
  PAW double counting   =     63997.42427120   -66803.27327486
  entropy T*S    EENTRO =        -0.00547172
  eigenvalues    EBANDS =     -4057.68893849
  atomic energy  EATOM  =     67564.59709734
  Solvation  Ediel_sol  =         0.00000000
  ---------------------------------------------------
  free energy    TOTEN  =      -450.53901447 eV

  energy without entropy =     -450.53354275  energy(sigma->0) =     -450.53764654


--------------------------------------------------------------------------------------------------------




----------------------------------------- Iteration    1(  14)  ---------------------------------------


    POTLOK:  cpu time    0.0825: real time    0.0825
    SETDIJ:  cpu time    0.0093: real time    0.0093
    EDDIAG:  cpu time    4.2180: real time    4.2196
  RMM-DIIS:  cpu time   12.1808: real time   12.1845
    ORTHCH:  cpu time    1.5296: real time    1.5304
       DOS:  cpu time    0.0053: real time    0.0053
    CHARGE:  cpu time    0.6804: real time    0.6804
    MIXING:  cpu time    0.0037: real time    0.0037
    --------------------------------------------
      LOOP:  cpu time   18.7110: real time   18.7265

 eigenvalue-minimisations  : 16388
 total energy-change (2. order) : 0.7612355E+01  (-0.8865297E+00)
 number of electron     673.0000026 magnetization      54.7079521
 augmentation part      343.5573024 magnetization      34.7612211

 Broyden mixing:
  rms(total) = 0.23821E+01    rms(broyden)= 0.23820E+01
  rms(prec ) = 0.26992E+01
  weight for this iteration     100.00

 eigenvalues of (default mixing * dielectric matrix)
  average eigenvalue GAMMA=   0.4816
  1.9970  0.6621  0.6621  0.2838  0.1970  0.1970  0.0763  0.1295  0.1295

 Free energy of the ion-electron system (eV)
  ---------------------------------------------------
  alpha Z        PSCENC =      1716.51401600
  Ewald energy   TEWEN  =    437806.50800252
  -Hartree energ DENC   =   -502112.88511233
  -exchange      EXHF   =         0.00000000
  -V(xc)+E(xc)   XCENC  =      1311.34562329
  PAW double counting   =     64438.06381728   -67248.31751266
  entropy T*S    EENTRO =         0.01393006
  eigenvalues    EBANDS =     -3918.76652069
  atomic energy  EATOM  =     67564.59709734
  Solvation  Ediel_sol  =         0.00000000
  ---------------------------------------------------
  free energy    TOTEN  =      -442.92665920 eV

  energy without entropy =     -442.94058926  energy(sigma->0) =     -442.93014171


--------------------------------------------------------------------------------------------------------




----------------------------------------- Iteration    1(  15)  ---------------------------------------


    POTLOK:  cpu time    0.0830: real time    0.0830
    SETDIJ:  cpu time    0.0093: real time    0.0093
    EDDIAG:  cpu time    4.2957: real time    4.3013
  RMM-DIIS:  cpu time   12.0106: real time   12.0142
    ORTHCH:  cpu time    1.5307: real time    1.5310
       DOS:  cpu time    0.0053: real time    0.0053
    CHARGE:  cpu time    0.6614: real time    0.6617
    MIXING:  cpu time    0.0040: real time    0.0040
    --------------------------------------------
      LOOP:  cpu time   18.6016: real time   18.6181

 eigenvalue-minimisations  : 16083
 total energy-change (2. order) : 0.2267355E+01  (-0.5916092E+00)
 number of electron     673.0000026 magnetization      52.8347527
 augmentation part      342.1782124 magnetization      32.4240895

 Broyden mixing:
  rms(total) = 0.21800E+01    rms(broyden)= 0.21800E+01
  rms(prec ) = 0.24556E+01
  weight for this iteration     100.00

 eigenvalues of (default mixing * dielectric matrix)
  average eigenvalue GAMMA=   0.4779
  2.0399  0.7484  0.7484  0.3341  0.2213  0.2213  0.0763  0.1370  0.1370  0.1155

 Free energy of the ion-electron system (eV)
  ---------------------------------------------------
  alpha Z        PSCENC =      1716.51401600
  Ewald energy   TEWEN  =    437806.50800252
  -Hartree energ DENC   =   -502204.07372059
  -exchange      EXHF   =         0.00000000
  -V(xc)+E(xc)   XCENC  =      1313.06172087
  PAW double counting   =     64666.56758517   -67468.59391966
  entropy T*S    EENTRO =         0.00979420
  eigenvalues    EBANDS =     -3835.24988004
  atomic energy  EATOM  =     67564.59709734
  Solvation  Ediel_sol  =         0.00000000
  ---------------------------------------------------
  free energy    TOTEN  =      -440.65930419 eV

  energy without entropy =     -440.66909839  energy(sigma->0) =     -440.66175274


--------------------------------------------------------------------------------------------------------




----------------------------------------- Iteration    1(  16)  ---------------------------------------


    POTLOK:  cpu time    0.0826: real time    0.0826
    SETDIJ:  cpu time    0.0094: real time    0.0094
    EDDIAG:  cpu time    4.2228: real time    4.2251
  RMM-DIIS:  cpu time   11.8442: real time   11.8479
    ORTHCH:  cpu time    1.5287: real time    1.5308
       DOS:  cpu time    0.0053: real time    0.0053
    CHARGE:  cpu time    0.6758: real time    0.6758
    MIXING:  cpu time    0.0040: real time    0.0044
    --------------------------------------------
      LOOP:  cpu time   18.3744: real time   18.3902

 eigenvalue-minimisations  : 15797
 total energy-change (2. order) : 0.2041829E+01  (-0.4473813E+00)
 number of electron     673.0000027 magnetization      51.3980658
 augmentation part      341.3947017 magnetization      30.5717549

 Broyden mixing:
  rms(total) = 0.20799E+01    rms(broyden)= 0.20799E+01
  rms(prec ) = 0.22550E+01
  weight for this iteration     100.00

 eigenvalues of (default mixing * dielectric matrix)
  average eigenvalue GAMMA=   0.4646
  2.0365  0.7605  0.7605  0.4673  0.2371  0.2371  0.0763  0.1492  0.1492  0.1185
  0.1185

 Free energy of the ion-electron system (eV)
  ---------------------------------------------------
  alpha Z        PSCENC =      1716.51401600
  Ewald energy   TEWEN  =    437806.50800252
  -Hartree energ DENC   =   -502308.65638680
  -exchange      EXHF   =         0.00000000
  -V(xc)+E(xc)   XCENC  =      1314.48776117
  PAW double counting   =     64827.55598843   -67614.14121976
  entropy T*S    EENTRO =         0.02162439
  eigenvalues    EBANDS =     -3745.50435879
  atomic energy  EATOM  =     67564.59709734
  Solvation  Ediel_sol  =         0.00000000
  ---------------------------------------------------
  free energy    TOTEN  =      -438.61747551 eV

  energy without entropy =     -438.63909990  energy(sigma->0) =     -438.62288161


--------------------------------------------------------------------------------------------------------




----------------------------------------- Iteration    1(  17)  ---------------------------------------


    POTLOK:  cpu time    0.0828: real time    0.0828
    SETDIJ:  cpu time    0.0095: real time    0.0095
    EDDIAG:  cpu time    4.2954: real time    4.2992
  RMM-DIIS:  cpu time   11.7719: real time   11.7756
    ORTHCH:  cpu time    1.5294: real time    1.5312
       DOS:  cpu time    0.0053: real time    0.0053
    CHARGE:  cpu time    0.6615: real time    0.6618
    MIXING:  cpu time    0.0043: real time    0.0043
    --------------------------------------------
      LOOP:  cpu time   18.3617: real time   18.3771

 eigenvalue-minimisations  : 15726
 total energy-change (2. order) : 0.2137557E+01  (-0.3096478E+00)
[...]
    CHARGE:  cpu time    0.6491: real time    0.6492
    FORLOC:  cpu time    0.0154: real time    0.0154
    FORNL :  cpu time    3.6011: real time    3.6024
    STRESS:  cpu time   10.7729: real time   10.7766
    FORCOR:  cpu time    0.0944: real time    0.0944
    FORHAR:  cpu time    0.0254: real time    0.0256
    MIXING:  cpu time    0.0132: real time    0.0132
    OFIELD:  cpu time    0.0008: real time    0.0017

  FORCE on cell =-STRESS in cart. coord.  units (eV):
  Direction    XX          YY          ZZ          XY          YZ          ZX
  --------------------------------------------------------------------------------------
  Alpha Z  1716.51402  1716.51402  1716.51402
  Ewald  475589.25293476398.41933************  -227.64339    64.13607     4.26189
  Hartree491044.84114491697.27273************  -271.60284    76.64565     4.81990
  E(xc)   -3551.89993 -3554.40499 -3559.04461     1.52031    -0.24585     0.43168
  Local  ************************989229.57508   506.80285  -142.09561    -8.22232
  n-local -2000.61136 -1993.24743 -2010.95695     8.27699    -0.43757     0.55202
  augment  2901.09035  2901.08523  2929.60973    -4.72872     0.54378    -0.31399
  Kinetic  6394.69786  6404.10235  6442.81485   -12.66967     1.30722    -2.20046
  Fock        0.00000     0.00000     0.00000     0.00000     0.00000     0.00000
  -------------------------------------------------------------------------------------
  Total     -29.90316    -5.30319    -5.05284    -0.04446    -0.14630    -0.67127
  in kB     -16.30222    -2.89112    -2.75464    -0.02424    -0.07976    -0.36595
  external pressure =       -7.32 kB  Pullay stress =        0.00 kB


 VOLUME and BASIS-vectors are now :
 -----------------------------------------------------------------------------
  energy-cutoff  :      600.00
  volume of cell :     2938.87
      direct lattice vectors                 reciprocal lattice vectors
     7.778498173  0.000000000  0.000000000     0.128559521  0.000000000  0.000000000
     0.000000000 13.137704849  0.000000000     0.000000000  0.076116796  0.000000000
     0.000000000  0.000000000 28.758470535     0.000000000  0.000000000  0.034772364

  length of vectors
     7.778498173 13.137704849 28.758470535     0.128559521  0.076116796  0.034772364


 FORCES acting on ions
    electron-ion (+dipol)            ewald-force                    non-local-force                 convergence-correction
 -----------------------------------------------------------------------------------------------
   -.213E+03 -.115E+03 -.309E+04   0.213E+03 0.115E+03 0.309E+04   0.574E-02 -.415E+00 -.748E+00   -.663E-04 0.212E-03 -.212E-03
   -.116E+03 -.254E+02 -.321E+04   0.117E+03 0.255E+02 0.321E+04   -.498E+00 0.411E+00 -.775E+00   0.750E-04 -.913E-04 -.194E-03
   -.767E+02 0.975E+02 -.127E+04   0.775E+02 -.961E+02 0.127E+04   -.779E+00 -.137E+01 -.325E+00   0.848E-05 -.300E-03 -.131E-03
   -.146E+03 0.142E+02 -.130E+04   0.146E+03 -.149E+02 0.130E+04   0.465E+00 0.333E+00 -.849E+00   0.143E-03 -.202E-03 -.456E-03
   0.322E+02 -.531E+02 0.748E+03   -.317E+02 0.524E+02 -.749E+03   -.457E+00 0.729E+00 0.465E+00   0.860E-04 -.293E-03 -.231E-03
   -.597E+02 -.287E+02 -.309E+04   0.610E+02 0.298E+02 0.309E+04   -.131E+01 -.117E+01 -.849E-01   0.508E-04 -.446E-04 -.599E-04
   -.430E+02 0.933E+02 0.970E+03   0.429E+02 -.933E+02 -.971E+03   0.171E+00 -.412E-01 0.188E+00   -.494E-04 0.364E-03 -.783E-03
   0.204E+03 -.145E+02 -.132E+04   -.203E+03 0.130E+02 0.132E+04   -.395E+00 0.145E+01 -.289E+00   -.118E-03 -.398E-03 -.399E-03
   0.225E+02 -.934E+02 0.318E+04   -.216E+02 0.939E+02 -.318E+04   -.828E+00 -.577E+00 0.154E+00   -.121E-04 -.381E-03 -.959E-04
   -.170E+03 -.556E+02 -.103E+04   0.170E+03 0.552E+02 0.103E+04   0.288E+00 0.336E+00 0.440E+00   0.933E-04 0.231E-03 -.854E-03
   -.661E+02 -.851E+02 -.318E+04   0.661E+02 0.846E+02 0.319E+04   -.928E-01 0.635E+00 -.688E+00   -.793E-04 0.200E-03 -.229E-03
   0.153E+02 -.109E+03 0.992E+03   -.152E+02 0.109E+03 -.992E+03   -.706E-01 0.406E+00 0.292E-01   -.116E-04 0.241E-03 -.881E-03
   0.339E+02 -.232E+02 -.140E+04   -.342E+02 0.244E+02 0.140E+04   0.337E+00 -.112E+01 0.957E+00   0.115E-03 -.220E-03 -.104E-03
   0.957E+01 0.156E+03 -.320E+04   -.102E+02 -.156E+03 0.320E+04   0.669E+00 0.125E-01 -.156E+01   -.139E-03 -.133E-03 -.159E-03
   0.857E+01 0.681E+02 0.956E+03   -.835E+01 -.679E+02 -.956E+03   -.212E+00 -.811E-01 -.181E+00   0.175E-03 -.256E-03 -.646E-03
   0.913E+02 -.458E+02 -.311E+04   -.912E+02 0.468E+02 0.311E+04   -.128E+00 -.119E+01 -.179E+00   -.893E-05 0.408E-03 -.169E-03
   -.429E+02 -.579E+02 -.116E+04   0.430E+02 0.573E+02 0.116E+04   -.223E-01 0.581E+00 0.426E-01   -.112E-03 0.308E-04 -.526E-03
   -.117E+02 -.765E+02 0.706E+03   0.116E+02 0.765E+02 -.707E+03   0.240E-01 -.188E-01 0.484E+00   0.188E-03 -.427E-03 -.440E-03
   0.120E+02 -.542E+02 0.312E+04   -.120E+02 0.547E+02 -.312E+04   -.161E-01 -.533E+00 -.481E+00   0.220E-03 -.462E-03 -.120E-04
   -.454E+02 0.134E+03 0.311E+04   0.458E+02 -.133E+03 -.311E+04   -.326E+00 -.949E+00 0.208E+01   -.937E-05 0.344E-03 -.279E-03
   -.614E+02 -.406E+02 0.847E+03   0.609E+02 0.405E+02 -.848E+03   0.502E+00 0.171E+00 0.984E+00   -.103E-04 -.198E-03 -.174E-03
   0.267E+02 0.496E+02 0.952E+03   -.274E+02 -.499E+02 -.952E+03   0.692E+00 0.258E+00 -.233E+00   0.603E-04 0.347E-03 -.967E-03
   0.146E+03 0.699E+02 -.318E+04   -.146E+03 -.699E+02 0.318E+04   -.161E-01 -.455E-01 -.437E+00   0.513E-04 0.260E-03 -.258E-03
   0.131E+03 -.326E+02 -.326E+04   -.131E+03 0.323E+02 0.326E+04   0.760E+00 0.376E+00 -.837E+00   0.111E-03 0.151E-03 -.278E-03
   0.178E+03 0.121E+03 -.110E+04   -.177E+03 -.121E+03 0.110E+04   -.253E+00 -.540E+00 -.328E-01   0.476E-05 0.401E-03 -.755E-03
   0.166E+03 0.418E+02 -.132E+04   -.166E+03 -.420E+02 0.131E+04   -.588E+00 0.170E+00 0.378E+00   0.545E-04 0.126E-03 -.652E-03
   -.116E+03 -.924E+02 -.130E+04   0.115E+03 0.930E+02 0.130E+04   0.127E+01 -.709E+00 0.815E+00   0.688E-04 0.816E-04 -.775E-03
   0.181E+02 -.869E+01 0.107E+04   -.180E+02 0.883E+01 -.107E+04   -.110E+00 -.162E+00 -.121E+01   0.653E-04 0.417E-03 -.877E-03
   0.155E+02 -.940E+02 0.881E+03   -.169E+02 0.954E+02 -.881E+03   0.135E+01 -.138E+01 -.743E+00   -.139E-03 -.459E-03 -.432E-03
   0.679E+01 -.554E+02 0.308E+04   -.653E+01 0.554E+02 -.308E+04   -.255E+00 0.208E-01 0.722E+00   -.110E-05 0.300E-04 -.323E-03
   -.241E+03 0.362E+02 -.312E+04   0.242E+03 -.373E+02 0.312E+04   -.437E+00 0.746E+00 -.523E+00   0.333E-04 -.114E-03 -.133E-03
   0.300E+02 -.736E+02 0.312E+04   -.304E+02 0.739E+02 -.312E+04   0.325E+00 -.194E+00 -.925E+00   0.991E-04 -.390E-03 -.239E-03
   0.399E+02 -.732E+02 -.120E+04   -.401E+02 0.726E+02 0.120E+04   0.265E+00 0.654E+00 0.159E+01   -.724E-04 -.371E-04 -.209E-03
   -.425E+02 -.360E+02 0.981E+03   0.422E+02 0.356E+02 -.981E+03   0.321E+00 0.522E+00 -.175E-01   -.108E-03 0.813E-04 -.417E-03
   -.567E+02 0.152E+02 -.992E+03   0.567E+02 -.153E+02 0.992E+03   0.498E-01 0.863E-01 -.304E+00   0.217E-04 0.260E-03 -.861E-03
   -.270E+02 -.115E+03 0.322E+04   0.263E+02 0.115E+03 -.323E+04   0.809E+00 -.103E+00 0.163E+01   -.191E-03 -.378E-03 -.311E-05
   0.550E+02 0.145E+03 0.314E+04   -.549E+02 -.146E+03 -.314E+04   -.152E+00 0.816E+00 0.964E+00   -.938E-05 0.524E-03 -.220E-03
   0.337E+02 0.815E+02 -.121E+04   -.341E+02 -.801E+02 0.121E+04   0.307E+00 -.145E+01 0.140E+01   -.131E-03 -.249E-03 -.440E-04
   0.278E+03 0.888E+02 -.321E+04   -.278E+03 -.901E+02 0.321E+04   0.262E+00 0.150E+01 -.172E+01   -.120E-03 -.607E-03 -.110E-03
   0.367E+02 -.570E+02 0.314E+04   -.368E+02 0.568E+02 -.314E+04   0.512E-01 0.163E+00 -.700E+00   -.635E-04 0.385E-03 -.356E-03
   0.550E+02 0.153E+03 0.310E+04   -.548E+02 -.153E+03 -.310E+04   -.814E-01 0.748E+00 0.632E+00   0.171E-03 -.146E-03 -.105E-03
   0.111E+03 -.607E+02 0.907E+03   -.110E+03 0.605E+02 -.906E+03   -.531E+00 0.177E+00 -.609E+00   0.129E-04 0.988E-04 -.470E-03
   0.146E+01 -.906E+02 0.909E+03   -.336E+00 0.909E+02 -.909E+03   -.112E+01 -.290E+00 -.791E+00   -.352E-04 -.356E-03 -.359E-03
   -.153E+03 -.909E+02 -.318E+04   0.153E+03 0.913E+02 0.318E+04   -.259E+00 -.446E+00 -.526E+00   -.175E-03 0.191E-03 -.249E-03
   -.775E+02 0.936E+02 0.915E+03   0.777E+02 -.940E+02 -.915E+03   -.186E+00 0.445E+00 0.514E+00   -.186E-03 0.369E-03 -.900E-03
   0.202E+02 -.129E+01 0.314E+04   -.202E+02 0.195E+01 -.314E+04   0.107E-01 -.633E+00 -.979E+00   -.140E-03 0.684E-05 -.285E-03
   -.460E+02 -.825E+02 0.309E+04   0.462E+02 0.825E+02 -.309E+04   -.237E+00 0.782E-01 -.707E+00   0.690E-04 -.462E-03 -.177E-03
   0.295E+02 0.950E+01 0.911E+03   -.296E+02 -.834E+01 -.910E+03   0.306E-01 -.117E+01 -.112E+01   -.695E-04 -.165E-03 -.174E-03
   -.597E+02 0.506E+02 -.107E+04   0.598E+02 -.505E+02 0.108E+04   0.246E-01 -.259E+00 -.546E+00   -.285E-04 -.300E-03 -.469E-03
   -.312E+02 -.134E+03 0.307E+04   0.312E+02 0.135E+03 -.307E+04   0.282E-01 -.970E-01 0.614E-01   0.151E-03 -.103E-03 -.293E-03
   0.142E+03 -.550E+02 -.995E+03   -.142E+03 0.550E+02 0.995E+03   -.282E+00 0.700E-02 0.730E-01   0.899E-05 0.236E-03 -.766E-03
   -.623E+02 -.389E+02 0.311E+04   0.633E+02 0.380E+02 -.311E+04   -.968E+00 0.904E+00 -.674E+00   -.782E-04 0.534E-03 -.283E-03
   -.219E+01 0.473E+02 0.852E+03   0.126E+01 -.467E+02 -.853E+03   0.930E+00 -.516E+00 0.853E+00   0.257E-04 -.146E-03 -.759E-03
   0.361E+03 0.760E+02 -.431E+04   -.360E+03 -.747E+02 0.430E+04   -.169E+01 -.206E+01 0.612E+01   -.651E-04 -.214E-03 0.286E-04
   -.192E+02 0.934E+02 0.409E+04   0.194E+02 -.934E+02 -.408E+04   -.200E+00 0.693E-01 -.467E+01   -.715E-04 0.101E-03 -.414E-04
   -.305E+03 0.325E+02 -.437E+04   0.302E+03 -.325E+02 0.436E+04   0.289E+01 0.322E+00 0.606E+01   0.933E-05 -.558E-03 -.203E-04
   -.326E+02 0.189E+03 0.439E+04   0.333E+02 -.189E+03 -.438E+04   -.706E+00 0.302E+00 -.650E+01   -.734E-04 -.144E-03 0.374E-04
   -.188E+02 0.147E+03 0.129E+04   0.190E+02 -.147E+03 -.129E+04   -.144E+00 0.175E+00 0.746E+00   -.258E-03 -.164E-03 -.760E-03
   0.637E+02 -.186E+02 -.188E+04   -.637E+02 0.183E+02 0.187E+04   0.337E-01 0.340E+00 0.316E+01   0.425E-04 0.188E-03 -.995E-04
   0.191E+02 -.449E+02 -.711E+03   -.192E+02 0.452E+02 0.712E+03   0.345E-01 -.284E+00 -.897E+00   -.558E-04 0.551E-04 -.450E-03
   -.825E+02 0.881E+01 -.765E+03   0.833E+02 -.906E+01 0.765E+03   -.775E+00 0.145E+00 -.292E+00   -.240E-04 -.641E-05 -.120E-03
   0.132E+02 -.364E+02 0.184E+04   -.130E+02 0.365E+02 -.184E+04   -.282E+00 -.470E-01 -.279E+01   -.946E-04 -.235E-03 -.119E-03
   0.568E+02 0.709E+01 -.836E+03   -.577E+02 -.718E+01 0.836E+03   0.887E+00 0.134E+00 -.402E+00   0.534E-04 -.450E-04 -.210E-03
   -.483E+02 0.246E+02 -.193E+04   0.482E+02 -.244E+02 0.192E+04   0.191E-01 0.344E-01 0.366E+01   -.242E-04 0.155E-03 -.131E-03
   0.747E+02 -.693E+02 -.188E+04   -.738E+02 0.684E+02 0.188E+04   -.111E+01 0.112E+01 0.279E+01   0.414E-04 -.227E-04 -.145E-03
   0.332E+02 0.591E+02 0.670E+03   -.335E+02 -.591E+02 -.671E+03   0.321E+00 -.120E-01 0.928E+00   0.678E-04 0.161E-03 -.540E-03
   0.580E+01 0.137E+02 -.190E+04   -.605E+01 -.137E+02 0.190E+04   0.234E+00 -.103E+00 0.251E+01   0.733E-04 0.145E-03 -.159E-03
   -.745E+02 0.271E+02 -.683E+03   0.747E+02 -.274E+02 0.684E+03   -.189E+00 0.220E+00 -.585E+00   -.117E-04 0.161E-03 -.578E-03
   0.235E+02 0.164E+02 0.185E+04   -.237E+02 -.161E+02 -.184E+04   0.176E+00 -.358E+00 -.342E+01   0.814E-04 0.222E-03 -.170E-03
   -.730E+01 0.553E+01 0.185E+04   0.681E+01 -.534E+01 -.185E+04   0.472E+00 -.148E+00 -.273E+01   0.888E-05 0.238E-03 -.180E-03
   -.432E+02 -.235E+02 0.557E+03   0.435E+02 0.236E+02 -.558E+03   -.252E+00 -.507E-01 0.669E+00   0.492E-04 0.857E-04 -.248E-03
 -----------------------------------------------------------------------------------------------
   0.969E+00 0.290E+01 -.874E-01   -.192E-12 0.462E-13 -.330E-11   -.957E+00 -.293E+01 0.382E-01   -.251E-03 -.664E-03 -.241E-01
 
 
 POSITION                                       TOTAL-FORCE (eV/Angst)
 -----------------------------------------------------------------------------------
      0.13051      6.30989      6.88885         0.029935     -0.102948     -0.002208
      1.46393     12.75070      7.09925        -0.081408      0.511832      0.070450
      0.12247      0.38151      5.06987        -0.021284      0.070710      0.140370
      1.37286      2.57611      5.01877         0.172619     -0.310601      0.205622
      1.40131     12.82155      2.95491        -0.000308      0.030431      0.029598
      6.75905      4.13215      6.85451        -0.014798     -0.098772      0.233167
      1.41457      4.06383      2.79719         0.041101     -0.012670     -0.037942
      4.04352      2.59747      4.98234        -0.044910     -0.034580      0.280062
      5.38075      9.24278      0.71169         0.001289     -0.013162      0.001948
      0.15415      4.74692      4.84268         0.033204     -0.005670     -0.018069
      5.29800     10.58493      7.00611        -0.092272      0.145560     -0.052809
      4.02729      3.93666      2.80194         0.021158     -0.035232      0.028157
      2.70797      0.44624      4.98752         0.042508     -0.002860      0.272732
      6.56477     12.78025      7.07753         0.031120      0.165670      0.200104
      6.60979      8.41264      2.76411         0.007605      0.058161     -0.014769
      5.39292      6.33872      6.87221        -0.046183     -0.219450      0.055493
      5.35544      9.13070      4.88598        -0.003313     -0.006784      0.011754
      0.13274     10.63634      2.91101        -0.002382     -0.008210      0.008758
      0.14422      9.22923      0.79266        -0.000661     -0.015987     -0.023738
      2.77871      4.70328      0.72574         0.051987     -0.001629      0.058333
      6.60748     12.80969      2.87584         0.016174      0.006655      0.001169
      0.11461      6.18628      2.75108        -0.021693      0.029280     -0.037401
      4.04810      8.46407      6.92500         0.072535     -0.043052     -0.009956
      2.78971     10.60152      7.12613         0.110695      0.080662     -0.020322
      4.06683      6.92322      4.87280         0.002089     -0.004914     -0.036853
      2.75326      9.16268      4.97152         0.027053     -0.029845     -0.020787
      0.12645      9.10849      4.91216        -0.030154     -0.017271     -0.021330
      6.63818      3.96691      2.81648        -0.008742     -0.020860     -0.038133
      2.65531     10.63517      2.83430         0.024958      0.023148      0.018539
      2.66192      0.32919      0.88456        -0.000953      0.009929     -0.000862
      1.42715      4.21048      6.96085        -0.071483     -0.354898      0.006970
      6.60150     11.37216      0.82930         0.010204      0.010142     -0.018442
      4.00385     11.29695      4.88232         0.037369      0.067486      0.171491
      5.32098      1.83034      2.83911        -0.033331      0.104929      0.035600
      6.62917      6.94935      4.80779         0.006530      0.010984     -0.007617
      2.70894      9.20606      0.66071         0.012811      0.004450     -0.022013
      0.11363      4.68562      0.72988        -0.009780     -0.011153     -0.010033
      5.31128      0.42167      4.92116        -0.093823     -0.025310     -0.005123
      5.28953      1.78620      7.00835         0.120892      0.215688     -0.196764
      4.01180      2.43913      0.81050        -0.058691     -0.023399      0.002647
      6.62988      7.02267      0.69623         0.025348     -0.025140      0.024117
      2.70372      1.84441      2.88961         0.022054     -0.003662      0.045311
      5.38517     10.60422      2.82717        -0.004225      0.039277     -0.017287
      6.60393      8.43813      6.93445         0.092763      0.028930      0.012062
      2.75075      6.21700      2.72905        -0.026220      0.014808     -0.031258
      5.29931      0.33988      0.82306        -0.001500      0.021174      0.013597
      1.44012     11.34383      0.85416        -0.010310      0.015094     -0.017531
      4.01668     12.81922      2.87630         0.024331     -0.014652      0.013088
      6.56163      2.58021      4.94083         0.143880     -0.144989      0.332342
      0.16465      0.33401      0.83661         0.007255      0.061105      0.047122
      5.35901      4.73376      4.88350        -0.049751     -0.006892      0.118171
      6.65773      2.46519      0.77459         0.036378     -0.030658      0.066797
      1.38750      8.46756      2.77258        -0.004663      0.031805      0.030121
      4.36645      4.14331      7.23774        -0.736571     -0.726869     -0.421336
      1.37429      6.93127      0.68822        -0.001199      0.006251     -0.008515
      7.74105      1.86410      7.27036         0.550886      0.270978     -1.304485
      4.17387      7.03491      0.25378        -0.012916     -0.033177     -0.006141
      3.95023      8.52327      2.74364         0.012286      0.023629     -0.021614
      2.77606      6.28953      7.04222         0.011182      0.067426      0.107363
      2.76953      4.67868      4.88675        -0.060812     -0.003465      0.079654
      6.52508     11.37964      4.95330         0.020780     -0.104404      0.000695
      4.04507     11.36964      0.92515        -0.020215      0.030120     -0.030259
      1.46113     11.32147      5.06855         0.009205      0.049986     -0.092706
      0.07502     10.63344      7.15632        -0.029968      0.169939      0.017343
      4.04172     12.73899      6.86204        -0.230457      0.234473     -0.310574
      5.32598      6.17665      2.70407         0.020305      0.005929     -0.060406
      1.45844      8.45288      7.01460        -0.014595     -0.166312     -0.019075
      1.40356      6.95120      4.75147        -0.010225     -0.022458     -0.009907
      1.46838      2.54604      0.81071        -0.044489     -0.061143      0.085806
      5.32330      4.58808      0.74783        -0.015614      0.044634     -0.064229
      0.11710      1.80406      2.91887         0.059409      0.081806      0.183939
 -----------------------------------------------------------------------------------
    total drift:                                0.012256     -0.035601     -0.073326


--------------------------------------------------------------------------------------------------------



  FREE ENERGIE OF THE ION-ELECTRON SYSTEM (eV)
  ---------------------------------------------------
  free  energy   TOTEN  =      -488.94414297 eV

  energy  without entropy=     -488.93353933  energy(sigma->0) =     -488.94149206
 


--------------------------------------------------------------------------------------------------------


    POTLOK:  cpu time    0.0961: real time    0.0973


--------------------------------------------------------------------------------------------------------


     LOOP+:  cpu time 1643.6722: real time 1644.9371
    4ORBIT:  cpu time    0.0000: real time    0.0000

 total amount of memory used by VASP on root node   162951. kBytes
========================================================================

   base      :      30000. kBytes
   nonlr-proj:       5729. kBytes
   fftplans  :       2917. kBytes
   grid      :       7405. kBytes
   one-center:         93. kBytes
   wavefun   :     116807. kBytes
 
  
  
 General timing and accounting informations for this job:
 ========================================================
  
                  Total CPU time used (sec):     1680.786
                            User time (sec):     1676.359
                          System time (sec):        4.427
                         Elapsed time (sec):     1682.088
  
                   Maximum memory used (kb):      241408.
                   Average memory used (kb):           0.
  
                          Minor page faults:        87451
                          Major page faults:            0
                 Voluntary context switches:        18118
