 vasp.5.4.1 05Feb16 (build Mar 19 2020 08:54:17) complex                        
  
 executed on           IFC91_ompi date 2021.12.19  09:15:09
 running on   96 total cores
 distrk:  each k-point on   96 cores,    1 groups
 distr:  one band on NCORES_PER_BAND=  24 cores,    4 groups


--------------------------------------------------------------------------------------------------------


 INCAR:
 POTCAR:   PAW_PBE Ni 06Sep2000                   
 POTCAR:    PAW_PBE Nb_sv 25May2007               
 POTCAR:    PAW_PBE W 08Apr2002                   

 ----------------------------------------------------------------------------- 
|                                                                             |
|           W    W    AA    RRRRR   N    N  II  N    N   GGGG   !!!           |
|           W    W   A  A   R    R  NN   N  II  NN   N  G    G  !!!           |
|           W    W  A    A  R    R  N N  N  II  N N  N  G       !!!           |
|           W WW W  AAAAAA  RRRRR   N  N N  II  N  N N  G  GGG   !            |
|           WW  WW  A    A  R   R   N   NN  II  N   NN  G    G                |
|           W    W  A    A  R    R  N    N  II  N    N   GGGG   !!!           |
|                                                                             |
|      For optimal performance we recommend to set                            |
|        NCORE= 4 - approx SQRT( number of cores)                             |
|      NCORE specifies how many cores store one orbital (NPAR=cpu/NCORE).     |
|      This setting can  greatly improve the performance of VASP for DFT.     |
|      The default, NPAR=number of cores might be grossly inefficient         |
|      on modern multi-core architectures or massively parallel machines.     |
|      Do your own testing !!!!                                               |
|      Unfortunately you need to use the default for GW and RPA calculations. |
|      (for HF NCORE is supported but not extensively tested yet)             |
|                                                                             |
 ----------------------------------------------------------------------------- 

 POTCAR:   PAW_PBE Ni 06Sep2000                   
   VRHFIN =Ni:                                                                  
   LEXCH  = PE                                                                  
   EATOM  =  1077.9025 eV,   79.2236 Ry                                         
                                                                                
   TITEL  = PAW_PBE Ni 06Sep2000                                                
   LULTRA =        F    use ultrasoft PP ?                                      
   IUNSCR =        1    unscreen: 0-lin 1-nonlin 2-no                           
   RPACOR =    2.000    partial core radius                                     
   POMASS =   58.690; ZVAL   =   10.000    mass and valenz                      
   RCORE  =    2.300    outmost cutoff radius                                   
   RWIGS  =    2.430; RWIGS  =    1.286    wigner-seitz radius (au A)           
   ENMAX  =  269.533; ENMIN  =  202.150 eV                                      
   RCLOC  =    1.681    cutoff for local pot                                    
   LCOR   =        T    correct aug charges                                     
   LPAW   =        T    paw PP                                                  
   EAUG   =  544.565                                                            
   DEXC   =    -.009                                                            
   RMAX   =    2.808    core radius for proj-oper                               
   RAUG   =    1.300    factor for augmentation sphere                          
   RDEP   =    2.390    radius for radial grids                                 
   QCUT   =   -4.451; QGAM   =    8.902    optimization parameters              
                                                                                
   Description                                                                  
     l     E      TYP  RCUT    TYP  RCUT                                        
     2   .000     23  2.300                                                     
     2   .000     23  2.300                                                     
     0   .000     23  2.300                                                     
     0   .000     23  2.300                                                     
     1  -.200     23  2.300                                                     
     1   .000     23  2.300                                                     
     3   .000      7   .000                                                     
  local pseudopotential read in
  partial core-charges read in
  atomic valenz-charges read in
  non local Contribution for L=           2  read in
    real space projection operators read in
  non local Contribution for L=           2  read in
    real space projection operators read in
  non local Contribution for L=           0  read in
    real space projection operators read in
  non local Contribution for L=           0  read in
    real space projection operators read in
  non local Contribution for L=           1  read in
    real space projection operators read in
  non local Contribution for L=           1  read in
    real space projection operators read in
    PAW grid and wavefunctions read in
 
   number of l-projection  operators is LMAX  =           6
   number of lm-projection operators is LMMAX =          18
 
 POTCAR:    PAW_PBE Nb_sv 25May2007               
   VRHFIN =Nb: 4p5s4d                                                           
   LEXCH  = PE                                                                  
   EATOM  =  1555.1913 eV,  114.3033 Ry                                         
                                                                                
   TITEL  = PAW_PBE Nb_sv 25May2007                                             
   LULTRA =        F    use ultrasoft PP ?                                      
   IUNSCR =        1    unscreen: 0-lin 1-nonlin 2-no                           
   RPACOR =    1.800    partial core radius                                     
   POMASS =   92.910; ZVAL   =   13.000    mass and valenz                      
   RCORE  =    2.400    outmost cutoff radius                                   
   RWIGS  =    2.400; RWIGS  =    1.270    wigner-seitz radius (au A)           
   ENMAX  =  293.235; ENMIN  =  219.927 eV                                      
   ICORE  =        3    local potential                                         
   LCOR   =        T    correct aug charges                                     
   LPAW   =        T    paw PP                                                  
   EAUG   =  455.659                                                            
   DEXC   =    0.000                                                            
   RMAX   =    2.456    core radius for proj-oper                               
   RAUG   =    1.300    factor for augmentation sphere                          
   RDEP   =    2.451    radius for radial grids                                 
   RDEPT  =    1.956    core radius for aug-charge                              
                                                                                
   Atomic configuration                                                         
   11 entries                                                                   
     n  l   j            E        occ.                                          
     1  0  0.50    -18805.2457   2.0000                                         
     2  0  0.50     -2630.2869   2.0000                                         
     2  1  1.50     -2348.4046   6.0000                                         
     3  0  0.50      -438.8757   2.0000                                         
     3  1  1.50      -346.7588   6.0000                                         
     3  2  2.50      -196.2560  10.0000                                         
     4  0  0.50       -58.3859   2.0000                                         
     5  0  0.50        -3.9816   1.0000                                         
     4  1  1.50       -34.5141   6.0000                                         
     4  2  2.50        -3.0408   4.0000                                         
     4  3  2.50        -1.3606   0.0000                                         
   Description                                                                  
     l       E           TYP  RCUT    TYP  RCUT                                 
     0    -58.3859094     23  2.200                                             
     0     -3.9816262     23  2.200                                             
     1    -34.5140738     23  2.200                                             
     1     13.6058260     23  2.200                                             
     2     -3.0408010     23  2.200                                             
     2     -0.1283038     23  2.200                                             
     3     -1.3605826     23  2.400                                             
  local pseudopotential read in
  partial core-charges read in
  partial kinetic energy density read in
  atomic valenz-charges read in
  non local Contribution for L=           0  read in
    real space projection operators read in
  non local Contribution for L=           0  read in
    real space projection operators read in
  non local Contribution for L=           1  read in
    real space projection operators read in
  non local Contribution for L=           1  read in
    real space projection operators read in
  non local Contribution for L=           2  read in
    real space projection operators read in
  non local Contribution for L=           2  read in
    real space projection operators read in
    PAW grid and wavefunctions read in
 
   number of l-projection  operators is LMAX  =           6
   number of lm-projection operators is LMMAX =          18
 
 POTCAR:    PAW_PBE W 08Apr2002                   
   VRHFIN =W : 6s5d                                                             
   LEXCH  = PE                                                                  
   EATOM  =   204.6103 eV,   15.0384 Ry                                         
                                                                                
   TITEL  = PAW_PBE W 08Apr2002                                                 
   LULTRA =        F    use ultrasoft PP ?                                      
   IUNSCR =        1    unscreen: 0-lin 1-nonlin 2-no                           
   RPACOR =    2.330    partial core radius                                     
   POMASS =  183.850; ZVAL   =    6.000    mass and valenz                      
   RCORE  =    2.750    outmost cutoff radius                                   
   RWIGS  =    2.750; RWIGS  =    1.455    wigner-seitz radius (au A)           
   ENMAX  =  223.057; ENMIN  =  167.293 eV                                      
   RCLOC  =    2.147    cutoff for local pot                                    
   LCOR   =        T    correct aug charges                                     
   LPAW   =        T    paw PP                                                  
   EAUG   =  373.438                                                            
   DEXC   =    0.000                                                            
   RMAX   =    2.801    core radius for proj-oper                               
   RAUG   =    1.300    factor for augmentation sphere                          
   RDEP   =    2.886    radius for radial grids                                 
   RDEPT  =    2.230    core radius for aug-charge                              
                                                                                
   Atomic configuration                                                         
   16 entries                                                                   
     n  l   j            E        occ.                                          
     1  0  0.50    -69465.5836   2.0000                                         
     2  0  0.50    -11986.2642   2.0000                                         
     2  1  1.50    -10479.8616   6.0000                                         
     3  0  0.50     -2759.0758   2.0000                                         
     3  1  1.50     -2313.1857   6.0000                                         
     3  2  2.50     -1801.1185  10.0000                                         
     4  0  0.50      -567.6791   2.0000                                         
     4  1  1.50      -421.4694   6.0000                                         
     4  2  2.50      -236.3473  10.0000                                         
     4  3  3.50       -31.2666  14.0000                                         
     5  0  0.50       -77.1085   2.0000                                         
     5  1  1.50       -41.3856   6.0000                                         
     5  2  2.50        -3.3185   5.0000                                         
     6  0  0.50        -5.1438   1.0000                                         
     6  1  0.50        -3.8096   0.0000                                         
     5  3  2.50        -1.3606   0.0000                                         
   Description                                                                  
     l       E           TYP  RCUT    TYP  RCUT                                 
     2     -3.3185288     23  2.500                                             
     2     -1.5965414     23  2.500                                             
     0     -5.1438054     23  2.500                                             
     0      4.9117504     23  2.500                                             
     1      2.7211652     23  2.750                                             
     1     27.2116520     23  2.750                                             
  local pseudopotential read in
  partial core-charges read in
  partial kinetic energy density read in
  atomic valenz-charges read in
  non local Contribution for L=           2  read in
    real space projection operators read in
  non local Contribution for L=           2  read in
    real space projection operators read in
  non local Contribution for L=           0  read in
    real space projection operators read in
  non local Contribution for L=           0  read in
    real space projection operators read in
  non local Contribution for L=           1  read in
    real space projection operators read in
  non local Contribution for L=           1  read in
    real space projection operators read in
    PAW grid and wavefunctions read in
 
   number of l-projection  operators is LMAX  =           6
   number of lm-projection operators is LMMAX =          18
 
 Optimization of the real space projectors (new method)

 maximal supplied QI-value         = 16.25
 optimisation between [QCUT,QGAM] = [ 12.51, 25.03] = [ 43.85,175.40] Ry 
 Optimized for a Real-space Cutoff    1.31 Angstroem

   l    n(q)    QCUT    max X(q) W(low)/X(q) W(high)/X(q)  e(spline) 
   2      9    12.514     4.811    0.56E-04    0.27E-04    0.54E-07
   2      9    12.514    15.146    0.50E-03    0.83E-03    0.65E-06
   0     10    12.514    14.357    0.12E-04    0.16E-04    0.90E-08
   0     10    12.514    43.282    0.85E-04    0.27E-03    0.25E-06
   1      9    12.514     5.514    0.64E-04    0.11E-04    0.56E-07
   1      9    12.514     7.697    0.40E-03    0.73E-04    0.27E-06
 Optimization of the real space projectors (new method)

 maximal supplied QI-value         = 15.68
 optimisation between [QCUT,QGAM] = [ 12.55, 25.10] = [ 44.09,176.36] Ry 
 Optimized for a Real-space Cutoff    1.56 Angstroem

   l    n(q)    QCUT    max X(q) W(low)/X(q) W(high)/X(q)  e(spline) 
   0     12    12.548    10.201    0.21E-04    0.36E-05    0.83E-07
   0     12    12.548     8.174    0.31E-04    0.62E-05    0.15E-06
   1     11    12.548     3.488    0.79E-05    0.23E-04    0.21E-06
   1     11    12.548     4.917    0.56E-04    0.13E-03    0.11E-05
   2     11    12.548   153.744    0.25E-03    0.10E-03    0.15E-05
   2     11    12.548   126.342    0.25E-03    0.10E-03    0.15E-05
 Optimization of the real space projectors (new method)

 maximal supplied QI-value         = 13.61
 optimisation between [QCUT,QGAM] = [ 12.52, 25.04] = [ 43.88,175.51] Ry 
 Optimized for a Real-space Cutoff    1.56 Angstroem

   l    n(q)    QCUT    max X(q) W(low)/X(q) W(high)/X(q)  e(spline) 
   2     11    12.518   130.855    0.35E-03    0.25E-03    0.12E-05
   2     11    12.518   114.007    0.35E-03    0.25E-03    0.12E-05
   0     12    12.518    84.709    0.29E-04    0.97E-05    0.60E-06
   0     12    12.518    49.163    0.27E-04    0.89E-05    0.55E-06
   1     11    12.518    15.765    0.74E-04    0.89E-04    0.15E-06
   1     11    12.518    10.638    0.55E-04    0.69E-04    0.13E-06
 PAW_PBE Ni 06Sep2000                   :
 energy of atom  1       EATOM=-1077.9025
 kinetic energy error for atom=    0.0019 (will be added to EATOM!!)
  PAW_PBE Nb_sv 25May2007               :
 energy of atom  2       EATOM=-1555.1913
 kinetic energy error for atom=    0.0037 (will be added to EATOM!!)
  PAW_PBE W 08Apr2002                   :
 energy of atom  3       EATOM= -204.6103
 kinetic energy error for atom=    0.0005 (will be added to EATOM!!)
 
 
 POSCAR: Ni Nb  W                                
  positions in direct lattice
  velocities in cartesian coordinates
 exchange correlation table for  LEXCH =        8
   RHO(1)=    0.500       N(1)  =     2000
   RHO(2)=  100.500       N(2)  =     4000
 


--------------------------------------------------------------------------------------------------------


 ion  position               nearest neighbor table
   1  0.011  0.479  0.237-   6 2.43  35 2.47  16 2.49  68 2.50  44 2.51  10 2.51  31 2.53  60 2.72

   2  0.189  0.975  0.248-  65 2.55  64 2.55  24 2.57   3 2.58  66 2.59  13 2.60  58 2.64  56 2.68
                            14 2.69
   3  0.017  0.028  0.175-   4 2.54  62 2.55   5 2.55  14 2.56  64 2.56  56 2.57   2 2.58  71 2.58
                            13 2.59  49 2.59  38 2.61  21 2.62
   4  0.174  0.197  0.172-  10 2.48  61 2.52  71 2.53   3 2.54  58 2.56  13 2.56  49 2.57  31 2.57
                            42 2.59   7 2.61  56 2.67   8 2.69
   5  0.180  0.975  0.102-  71 2.48  30 2.50  29 2.51  18 2.53  13 2.53  42 2.53  50 2.53   3 2.55
                            47 2.55  21 2.57  64 2.60  48 2.62
   6  0.865  0.315  0.238-  10 2.42   1 2.43  54 2.44  31 2.47  56 2.48  51 2.49  49 2.49  16 2.60
                            39 2.73
   7  0.182  0.309  0.097-  22 2.49  69 2.50  10 2.50  37 2.52  45 2.53  28 2.56  20 2.56  61 2.57
                            42 2.58   4 2.61  12 2.62  71 2.62
   8  0.521  0.197  0.172-  61 2.45  51 2.51  49 2.51  38 2.51  39 2.52  12 2.53  13 2.55  58 2.57
                            34 2.57  42 2.58   4 2.69  54 2.83
   9  0.692  0.704  0.025-  32 2.46  43 2.52  63 2.52  15 2.53  19 2.54  41 2.55  57 2.56  59 2.59
                            36 2.67
  10  0.018  0.361  0.168-   6 2.42   4 2.48   7 2.50   1 2.51  28 2.52  22 2.54  68 2.55  35 2.56
                            49 2.56  51 2.57  31 2.57  61 2.62
  11  0.681  0.805  0.244-  23 2.46  66 2.48  44 2.49  62 2.51  24 2.52  14 2.55  65 2.57  33 2.58
                            17 2.59
  12  0.518  0.300  0.097-  34 2.47  42 2.48  40 2.49  70 2.51   8 2.53  20 2.54  61 2.56  51 2.58
                            67 2.59  28 2.61  45 2.61   7 2.62
  13  0.349  0.032  0.173-  66 2.48   5 2.53  42 2.53   8 2.55   4 2.56  64 2.57  48 2.57   3 2.59
                            38 2.59   2 2.60  33 2.61  58 2.62
  14  0.843  0.974  0.247-  65 2.49  39 2.51  66 2.52  56 2.52  11 2.55   3 2.56  62 2.56  38 2.61
                             2 2.69
  15  0.850  0.640  0.096-  41 2.49  35 2.50  19 2.51  43 2.51   9 2.53  17 2.55  53 2.56  22 2.57
                            18 2.57  67 2.58  27 2.61  59 2.66
  16  0.691  0.484  0.238-  44 2.42  54 2.43  25 2.45  35 2.49   1 2.49  23 2.49  51 2.56   6 2.60
                            60 2.61
  17  0.688  0.695  0.169-  23 2.48  44 2.49  43 2.52  35 2.52  62 2.53  33 2.54  15 2.55  27 2.56
                            25 2.57  11 2.59  59 2.61  26 2.63
  18  0.017  0.809  0.101-  53 2.50  27 2.52  43 2.52   5 2.53  29 2.53  21 2.54  19 2.54  47 2.55
                            15 2.57  32 2.57  62 2.58  64 2.62
  19  0.019  0.702  0.028-  53 2.46  47 2.48  15 2.51  32 2.52   9 2.54  18 2.54  41 2.56  36 2.57
                            55 2.61
  20  0.357  0.358  0.025-  45 2.51  69 2.53  12 2.54  70 2.55   7 2.56  40 2.58  55 2.63  37 2.67
                            57 2.76
  21  0.849  0.974  0.100-  71 2.49  32 2.50  43 2.51  34 2.52  46 2.53  62 2.53  50 2.53  18 2.54
                            38 2.54   5 2.57  48 2.58   3 2.62
  22  0.015  0.471  0.096-   7 2.49  37 2.52  35 2.52  55 2.53  10 2.54  28 2.55  41 2.55  67 2.57
                            68 2.57  15 2.57  53 2.61  45 2.64
  23  0.520  0.644  0.239-  26 2.42  11 2.46  17 2.48  16 2.49  24 2.49  60 2.52  44 2.54  25 2.55

  24  0.357  0.807  0.247-  66 2.48  23 2.49  11 2.52  64 2.52   2 2.57  26 2.57  33 2.62  65 2.70

  25  0.521  0.526  0.169-  16 2.45  51 2.53  23 2.55  17 2.57  35 2.57  61 2.58  45 2.59  26 2.61
                            67 2.61  68 2.62  59 2.67  60 2.70
  26  0.350  0.696  0.173-  23 2.42  33 2.50  64 2.51  68 2.55  24 2.57  27 2.59  25 2.61  29 2.61
                            59 2.62  17 2.63  53 2.66
  27  0.017  0.693  0.171-  44 2.47  35 2.51  18 2.52  68 2.52  17 2.56  53 2.57  64 2.58  26 2.59
                            15 2.61  62 2.66  65 2.74
  28  0.853  0.302  0.098-  71 2.51  34 2.51  10 2.52  70 2.53  49 2.53  52 2.53  37 2.54  51 2.55
                            22 2.55   7 2.56  67 2.57  12 2.61
  29  0.341  0.810  0.099-  47 2.43  63 2.47  59 2.48  53 2.51   5 2.51  18 2.53  33 2.54  48 2.57
                            36 2.60  26 2.61  64 2.62  43 2.73
  30  0.342  0.025  0.031-  47 2.45  48 2.50  42 2.50  50 2.50   5 2.50  40 2.51  63 2.51  69 2.52
                            46 2.64
  31  0.182  0.316  0.243-   6 2.47  58 2.50   1 2.53  61 2.55  60 2.56  10 2.57   4 2.57  56 2.69
                            54 2.92
  32  0.849  0.866  0.029-   9 2.46  43 2.46  46 2.48  50 2.49  21 2.50  19 2.52  63 2.56  18 2.57
                            47 2.62
  33  0.515  0.859  0.170-  66 2.47  26 2.50  62 2.52  48 2.53  29 2.54  17 2.54  64 2.55  43 2.57
                            11 2.58  13 2.61  38 2.61  24 2.62
  34  0.684  0.139  0.099-  12 2.47  40 2.49  46 2.51  28 2.51  48 2.52  21 2.52  38 2.53  49 2.54
                            52 2.54  71 2.57   8 2.57  42 2.61
  35  0.852  0.529  0.167-   1 2.47  16 2.49  15 2.50  27 2.51  22 2.52  17 2.52  10 2.56  51 2.56
                            25 2.57  67 2.58  68 2.58  44 2.60
  36  0.348  0.701  0.023-  47 2.49  59 2.52  63 2.56  19 2.57  53 2.60  29 2.60  55 2.64  57 2.65
                             9 2.67
  37  0.015  0.357  0.025-  22 2.52   7 2.52  69 2.53  28 2.54  52 2.54  70 2.57  55 2.58  41 2.66
                            20 2.67
  38  0.682  0.031  0.172-  66 2.46  62 2.49  39 2.50  49 2.50   8 2.51  34 2.53  48 2.54  21 2.54
                            13 2.59   3 2.61  14 2.61  33 2.61
  39  0.680  0.138  0.243-  56 2.45  38 2.50  14 2.51   8 2.52  49 2.54  66 2.56  54 2.58  58 2.59
                             6 2.73
  40  0.516  0.186  0.028-  46 2.46  34 2.49  12 2.49  30 2.51  42 2.52  70 2.52  69 2.55  20 2.58
                            52 2.65
  41  0.852  0.535  0.024-  15 2.49  57 2.50  55 2.52  67 2.54   9 2.55  22 2.55  19 2.56  37 2.66
                            70 2.76
  42  0.348  0.140  0.100-  12 2.48  30 2.50  69 2.51  40 2.52  48 2.52  13 2.53   5 2.53   8 2.58
                             7 2.58   4 2.59  71 2.60  34 2.61
  43  0.692  0.807  0.098-  63 2.45  32 2.46  15 2.51  21 2.51   9 2.52  17 2.52  18 2.52  59 2.53
                            62 2.54  33 2.57  48 2.60  29 2.73
  44  0.847  0.643  0.240-  16 2.42  27 2.47  17 2.49  11 2.49   1 2.51  23 2.54  65 2.57  35 2.60

  45  0.354  0.473  0.095-  20 2.51   7 2.53  55 2.56  67 2.58  68 2.58  25 2.59  59 2.60  12 2.61
                            53 2.63  22 2.64  61 2.66  57 2.97
  46  0.681  0.026  0.029-  63 2.45  40 2.46  32 2.48  34 2.51  48 2.51  52 2.52  21 2.53  30 2.64
                            50 2.64
  47  0.185  0.863  0.030-  29 2.43  30 2.45  19 2.48  50 2.48  36 2.49  18 2.55   5 2.55  63 2.61
                            32 2.62
  48  0.517  0.975  0.100-  63 2.43  30 2.50  46 2.51  34 2.52  42 2.52  33 2.53  38 2.54  29 2.57
                            13 2.57  21 2.58  43 2.60   5 2.62
  49  0.843  0.196  0.171-  51 2.48   6 2.49  38 2.50   8 2.51  28 2.53  34 2.54  39 2.54  71 2.55
                            10 2.56  56 2.57   4 2.57   3 2.59
  50  0.021  0.025  0.029-  47 2.48  52 2.49  32 2.49  30 2.50  71 2.52   5 2.53  21 2.53  69 2.57
                            46 2.64
  51  0.688  0.360  0.169-  49 2.48   6 2.49   8 2.51  25 2.53  28 2.55  16 2.56  35 2.56  10 2.57
                            12 2.58  61 2.59  67 2.61  54 2.65
  52  0.856  0.188  0.027-  50 2.49  70 2.51  46 2.52  28 2.53  71 2.54  34 2.54  37 2.54  69 2.59
                            40 2.65
  53  0.178  0.645  0.096-  19 2.46  18 2.50  29 2.51  68 2.56  15 2.56  59 2.56  27 2.57  55 2.59
                            36 2.60  22 2.61  45 2.63  26 2.66
  54  0.556  0.320  0.252-  16 2.43   6 2.44  39 2.58  60 2.61  51 2.65  58 2.74   8 2.83  61 2.87
                            31 2.92
  55  0.177  0.528  0.024-  41 2.52  22 2.53  45 2.56  37 2.58  53 2.59  19 2.61  20 2.63  36 2.64
                            57 2.83
  56  0.994  0.144  0.247-  39 2.45   6 2.48  14 2.52  49 2.57   3 2.57   4 2.67   2 2.68  31 2.69
                            58 2.75
  57  0.537  0.535  0.009-  41 2.50   9 2.56  36 2.65  70 2.75  20 2.76  55 2.83  67 2.84  59 2.91
                            45 2.97
  58  0.348  0.152  0.245-  31 2.50   4 2.56   8 2.57  39 2.59  13 2.62   2 2.64  54 2.74  56 2.75
                            66 2.77
  59  0.508  0.649  0.095-  29 2.48  36 2.52  43 2.53  53 2.56   9 2.59  45 2.60  17 2.61  26 2.62
                            15 2.66  25 2.67  67 2.72  57 2.91
  60  0.358  0.480  0.249-  23 2.52  31 2.56  54 2.61  16 2.61  25 2.70   1 2.72  68 2.78  61 2.79

  61  0.355  0.356  0.170-   8 2.45   4 2.52  31 2.55  12 2.56   7 2.57  25 2.58  51 2.59  10 2.62
                            68 2.63  45 2.66  60 2.79  54 2.87
  62  0.838  0.865  0.173-  38 2.49  11 2.51  33 2.52  21 2.53  17 2.53  43 2.54   3 2.55  14 2.56
                            18 2.58  27 2.66  65 2.67  64 2.72  66 3.41
  63  0.520  0.865  0.032-  48 2.43  43 2.45  46 2.45  29 2.47  30 2.51   9 2.52  36 2.56  32 2.56
                            47 2.61
  64  0.188  0.861  0.176-  26 2.51  24 2.52   2 2.55  33 2.55   3 2.56  13 2.57  27 2.58  65 2.59
                             5 2.60  18 2.62  29 2.62  62 2.72  66 3.46
  65  0.011  0.812  0.249-  14 2.49   2 2.55  44 2.57  11 2.57  64 2.59  62 2.67  24 2.70  27 2.74

  66  0.520  0.969  0.239-  38 2.46  33 2.47  13 2.48  24 2.48  11 2.48  14 2.52  39 2.56   2 2.59
                            58 2.77  62 3.41  64 3.46
  67  0.685  0.470  0.094-  70 2.52  41 2.54  22 2.57  28 2.57  45 2.58  35 2.58  15 2.58  12 2.59
                            51 2.61  25 2.61  59 2.72  57 2.84
  68  0.184  0.528  0.168-   1 2.50  27 2.52  10 2.55  26 2.55  53 2.56  22 2.57  45 2.58  35 2.58
                            25 2.62  61 2.63  60 2.78
  69  0.189  0.194  0.028-   7 2.50  42 2.51  30 2.52  20 2.53  37 2.53  40 2.55  50 2.57  52 2.59
                            71 2.60
  70  0.684  0.349  0.026-  52 2.51  12 2.51  40 2.52  67 2.52  28 2.53  20 2.55  37 2.57  57 2.75
                            41 2.76
  71  0.014  0.137  0.101-   5 2.48  21 2.49  28 2.51  50 2.52   4 2.53  52 2.54  49 2.55  34 2.57
                             3 2.58  69 2.60  42 2.60   7 2.62
 
  LATTYP: Found a simple orthorhombic cell.
 ALAT       =     7.7784981728
 B/A-ratio  =     1.6889770438
 C/A-ratio  =     3.6971751997
  
  Lattice vectors:
  
 A1 = (   7.7784981728,   0.0000000000,   0.0000000000)
 A2 = (   0.0000000000,  13.1377048492,   0.0000000000)
 A3 = (   0.0000000000,   0.0000000000,  28.7584705353)


Analysis of symmetry for initial positions (statically):
=====================================================================
 Subroutine PRICEL returns:
 Original cell was already a primitive cell.
 

 Routine SETGRP: Setting up the symmetry group for a 
 simple orthorhombic supercell.


 Subroutine GETGRP returns: Found  1 space group operations
 (whereof  1 operations were pure point group operations)
 out of a pool of  8 trial point group operations.


The static configuration has the point symmetry C_1 .


Analysis of symmetry for dynamics (positions and initial velocities):
=====================================================================
 Subroutine PRICEL returns:
 Original cell was already a primitive cell.
 

 Routine SETGRP: Setting up the symmetry group for a 
 simple orthorhombic supercell.


 Subroutine GETGRP returns: Found  1 space group operations
 (whereof  1 operations were pure point group operations)
 out of a pool of  8 trial point group operations.


The dynamic configuration has the point symmetry C_1 .


Analysis of constrained symmetry for selective dynamics:
=====================================================================
 Subroutine PRICEL returns:
 Original cell was already a primitive cell.
 

 Routine SETGRP: Setting up the symmetry group for a 
 simple orthorhombic supercell.


 Subroutine GETGRP returns: Found  1 space group operations
 (whereof  1 operations were pure point group operations)
 out of a pool of  8 trial point group operations.


The constrained configuration has the point symmetry C_1 .


Analysis of structural, dynamic, and magnetic symmetry:
=====================================================================
 Subroutine PRICEL returns:
 Original cell was already a primitive cell.
 

 Routine SETGRP: Setting up the symmetry group for a 
 simple orthorhombic supercell.


 Subroutine GETGRP returns: Found  1 space group operations
 (whereof  1 operations were pure point group operations)
 out of a pool of  8 trial point group operations.


The magnetic configuration has the point symmetry C_1 .


 Subroutine INISYM returns: Found  1 space group operations
 (whereof  1 operations are pure point group operations),
 and found     1 'primitive' translations

 
 
 KPOINTS: k-points                                

Automatic generation of k-mesh.
Space group operators:
 irot       det(A)        alpha          n_x          n_y          n_z        tau_x        tau_y        tau_z
    1     1.000000     0.000000     1.000000     0.000000     0.000000     0.000000     0.000000     0.000000
 
 Subroutine IBZKPT returns following result:
 ===========================================
 
 Found      8 irreducible k-points:
 
 Following reciprocal coordinates:
            Coordinates               Weight
  0.125000  0.125000  0.000000      2.000000
  0.375000  0.125000  0.000000      2.000000
 -0.375000  0.125000  0.000000      2.000000
 -0.125000  0.125000  0.000000      2.000000
  0.125000  0.375000  0.000000      2.000000
  0.375000  0.375000  0.000000      2.000000
 -0.375000  0.375000  0.000000      2.000000
 -0.125000  0.375000  0.000000      2.000000
 
 Following cartesian coordinates:
            Coordinates               Weight
  0.016070  0.009515  0.000000      2.000000
  0.048210  0.009515  0.000000      2.000000
 -0.048210  0.009515  0.000000      2.000000
 -0.016070  0.009515  0.000000      2.000000
  0.016070  0.028544  0.000000      2.000000
  0.048210  0.028544  0.000000      2.000000
 -0.048210  0.028544  0.000000      2.000000
 -0.016070  0.028544  0.000000      2.000000
 


--------------------------------------------------------------------------------------------------------




 Dimension of arrays:
   k-points           NKPTS =      8   k-points in BZ     NKDIM =      8   number of bands    NBANDS=    444
   number of dos      NEDOS =    301   number of ions     NIONS =     71
   non local maximal  LDIM  =      6   non local SUM 2l+1 LMDIM =     18
   total plane-waves  NPLWV = 691200
   max r-space proj   IRMAX =   3792   max aug-charges    IRDMAX=  13623
   dimension x,y,z NGX =    48 NGY =   80 NGZ =  180
   dimension x,y,z NGXF=    96 NGYF=  160 NGZF=  360
   support grid    NGXF=    96 NGYF=  160 NGZF=  360
   ions per type =              53   6  12
 NGX,Y,Z   is equivalent  to a cutoff of  10.26, 10.12, 10.41 a.u.
 NGXF,Y,Z  is equivalent  to a cutoff of  20.52, 20.25, 20.81 a.u.


 I would recommend the setting:
   dimension x,y,z NGX =    47 NGY =   79 NGZ =  172
 SYSTEM =  (110) surface                           
 POSCAR =  Ni Nb  W                                

 Startparameter for this run:
   NWRITE =      2    write-flag & timer
   PREC   = normal    normal or accurate (medium, high low for compatibility)
   ISTART =      0    job   : 0-new  1-cont  2-samecut
   ICHARG =      2    charge: 1-file 2-atom 10-const
   ISPIN  =      2    spin polarized calculation?
   LNONCOLLINEAR =      F non collinear calculations
   LSORBIT =      F    spin-orbit coupling
   INIWAV =      1    electr: 0-lowe 1-rand  2-diag
   LASPH  =      F    aspherical Exc in radial PAW
   METAGGA=      F    non-selfconsistent MetaGGA calc.

 Electronic Relaxation 1
   ENCUT  =  600.0 eV  44.10 Ry    6.64 a.u.  15.54 26.24 57.44*2*pi/ulx,y,z
   ENINI  =  600.0     initial cutoff
   ENAUG  =  544.6 eV  augmentation charge cutoff
   NELM   =    150;   NELMIN=  8; NELMDL= -5     # of ELM steps 
   EDIFF  = 0.1E-05   stopping-criterion for ELM
   LREAL  =      T    real-space projection
   NLSPLINE    = F    spline interpolate recip. space projectors
   LCOMPAT=      F    compatible to vasp.4.4
   GGA_COMPAT  = T    GGA compatible to vasp.4.4-vasp.4.6
   LMAXPAW     = -100 max onsite density
   LMAXMIX     =    2 max onsite mixed and CHGCAR
   VOSKOWN=      0    Vosko Wilk Nusair interpolation
   ROPT   =   -0.00050  -0.00050  -0.00050
 Ionic relaxation
   EDIFFG = -.1E-01   stopping-criterion for IOM
   NSW    =      0    number of steps for IOM
   NBLOCK =      1;   KBLOCK =      1    inner block; outer block 
   IBRION =     -1    ionic relax: 0-MD 1-quasi-New 2-CG
   NFREE  =      0    steps in history (QN), initial steepest desc. (CG)
   ISIF   =      2    stress and relaxation
   IWAVPR =     10    prediction:  0-non 1-charg 2-wave 3-comb
   ISYM   =      2    0-nonsym 1-usesym 2-fastsym
   LCORR  =      T    Harris-Foulkes like correction to forces

   POTIM  = 0.1000    time-step for ionic-motion
   TEIN   =    0.0    initial temperature
   TEBEG  =    0.0;   TEEND  =   0.0 temperature during run
   SMASS  =  -3.00    Nose mass-parameter (am)
   estimated Nose-frequenzy (Omega)   =  0.10E-29 period in steps =****** mass=  -0.138E-26a.u.
   SCALEE = 1.0000    scale energy and forces
   NPACO  =    256;   APACO  = 16.0  distance and # of slots for P.C.
   PSTRESS=    0.0 pullay stress

  Mass of Ions in am
   POMASS =  58.69 92.91183.85
  Ionic Valenz
   ZVAL   =  10.00 13.00  6.00
  Atomic Wigner-Seitz radii
   RWIGS  =  -1.00 -1.00 -1.00
  virtual crystal weights 
   VCA    =   1.00  1.00  1.00
   NELECT =     680.0000    total number of electrons
   NUPDOWN=      -1.0000    fix difference up-down

 DOS related values:
   EMIN   =  10.00;   EMAX   =-10.00  energy-range for DOS
   EFERMI =   0.00
   ISMEAR =     2;   SIGMA  =   0.20  broadening in eV -4-tet -1-fermi 0-gaus

 Electronic relaxation 2 (details)
   IALGO  =     68    algorithm
   LDIAG  =      T    sub-space diagonalisation (order eigenvalues)
   LSUBROT=      F    optimize rotation matrix (better conditioning)
   TURBO    =      0    0=normal 1=particle mesh
   IRESTART =      0    0=no restart 2=restart with 2 vectors
   NREBOOT  =      0    no. of reboots
   NMIN     =      0    reboot dimension
   EREF     =   0.00    reference energy to select bands
   IMIX   =      4    mixing-type and parameters
     AMIX     =   0.40;   BMIX     =  1.00
     AMIX_MAG =   1.60;   BMIX_MAG =  1.00
     AMIN     =   0.10
     WC   =   100.;   INIMIX=   1;  MIXPRE=   1;  MAXMIX= -45

 Intra band minimization:
   WEIMIN = 0.0000     energy-eigenvalue tresh-hold
   EBREAK =  0.56E-09  absolut break condition
   DEPER  =   0.30     relativ break condition  

   TIME   =   0.40     timestep for ELM

  volume/ion in A,a.u.               =      41.39       279.33
  Fermi-wavevector in a.u.,A,eV,Ry     =   1.005042  1.899254 13.743367  1.010109
  Thomas-Fermi vector in A             =   2.137696
 
 Write flags
   LWAVE  =      F    write WAVECAR
   LCHARG =      F    write CHGCAR
   LVTOT  =      F    write LOCPOT, total local potential
   LVHAR  =      F    write LOCPOT, Hartree potential only
   LELF   =      F    write electronic localiz. function (ELF)
   LORBIT =      0    0 simple, 1 ext, 2 COOP (PROOUT)


 Dipole corrections
   LMONO  =      F    monopole corrections only (constant potential shift)
   LDIPOL =      F    correct potential (dipole corrections)
   IDIPOL =      0    1-x, 2-y, 3-z, 4-all directions 
   EPSILON=  1.0000000 bulk dielectric constant

 Exchange correlation treatment:
   GGA     =    --    GGA type
   LEXCH   =     8    internal setting for exchange type
   VOSKOWN=      0    Vosko Wilk Nusair interpolation
   LHFCALC =     F    Hartree Fock is set to
   LHFONE  =     F    Hartree Fock one center treatment
   AEXX    =    0.0000 exact exchange contribution

 Linear response parameters
   LEPSILON=     F    determine dielectric tensor
   LRPA    =     F    only Hartree local field effects (RPA)
   LNABLA  =     F    use nabla operator in PAW spheres
   LVEL    =     F    velocity operator in full k-point grid
   LINTERFAST=   F  fast interpolation
   KINTER  =     0    interpolate to denser k-point grid
   CSHIFT  =0.1000    complex shift for real part using Kramers Kronig
   OMEGAMAX=  -1.0    maximum frequency
   DEG_THRESHOLD= 0.2000000E-02 threshold for treating states as degnerate
   RTIME   =    0.100 relaxation time in fs

 Orbital magnetization related:
   ORBITALMAG=     F  switch on orbital magnetization
   LCHIMAG   =     F  perturbation theory with respect to B field
   DQ        =  0.001000  dq finite difference perturbation B field



--------------------------------------------------------------------------------------------------------


 Static calculation
 charge density and potential will be updated during run
 spin polarized calculation
 RMM-DIIS sequential band-by-band and
  variant of blocked Davidson during initial phase
 perform sub-space diagonalisation
    before iterative eigenvector-optimisation
 modified Broyden-mixing scheme, WC =      100.0
 initial mixing is a Kerker type mixing with AMIX =  0.4000 and BMIX =      1.0000
 Hartree-type preconditioning will be used
 using additional bands          104
 real space projection scheme for non local part
 use partial core corrections
 calculate Harris-corrections to forces 
   (improved forces if not selfconsistent)
 use gradient corrections 
 use of overlap-Matrix (Vanderbilt PP)
 Methfessel and Paxton  Order N= 2 SIGMA  =   0.20


--------------------------------------------------------------------------------------------------------


  energy-cutoff  :      600.00
  volume of cell :     2938.87
      direct lattice vectors                 reciprocal lattice vectors
     7.778498173  0.000000000  0.000000000     0.128559521  0.000000000  0.000000000
     0.000000000 13.137704849  0.000000000     0.000000000  0.076116796  0.000000000
     0.000000000  0.000000000 28.758470535     0.000000000  0.000000000  0.034772364

  length of vectors
     7.778498173 13.137704849 28.758470535     0.128559521  0.076116796  0.034772364


 
 k-points in units of 2pi/SCALE and weight: k-points                                
   0.01606994  0.00951460  0.00000000       0.125
   0.04820982  0.00951460  0.00000000       0.125
  -0.04820982  0.00951460  0.00000000       0.125
  -0.01606994  0.00951460  0.00000000       0.125
   0.01606994  0.02854380  0.00000000       0.125
   0.04820982  0.02854380  0.00000000       0.125
  -0.04820982  0.02854380  0.00000000       0.125
  -0.01606994  0.02854380  0.00000000       0.125
 
 k-points in reciprocal lattice and weights: k-points                                
   0.12500000  0.12500000  0.00000000       0.125
   0.37500000  0.12500000  0.00000000       0.125
  -0.37500000  0.12500000  0.00000000       0.125
  -0.12500000  0.12500000  0.00000000       0.125
   0.12500000  0.37500000  0.00000000       0.125
   0.37500000  0.37500000  0.00000000       0.125
  -0.37500000  0.37500000  0.00000000       0.125
  -0.12500000  0.37500000  0.00000000       0.125
 
 position of ions in fractional coordinates (direct lattice) 
   0.01076518  0.47861873  0.23730416
   0.18894721  0.97485563  0.24791662
   0.01659880  0.02776897  0.17529427
   0.17433924  0.19686249  0.17212519
   0.17969518  0.97499130  0.10233578
   0.86473174  0.31512708  0.23848541
   0.18185604  0.30932552  0.09726507
   0.52063396  0.19677342  0.17184671
   0.69174629  0.70353079  0.02474701
   0.01803349  0.36085162  0.16839357
   0.68056975  0.80531924  0.24362099
   0.51774710  0.29964626  0.09743019
   0.34885989  0.03155432  0.17271922
   0.84303356  0.97372803  0.24663521
   0.84975159  0.64034343  0.09611478
   0.69088146  0.48378541  0.23834618
   0.68796332  0.69459682  0.16920874
   0.01661733  0.80880700  0.10148990
   0.01854145  0.70249915  0.02756251
   0.35722980  0.35799846  0.02523561
   0.84880188  0.97446365  0.10017850
   0.01473417  0.47088006  0.09566164
   0.52033548  0.64423715  0.23906924
   0.35706668  0.80681672  0.24671767
   0.52109526  0.52555445  0.16911772
   0.34953445  0.69590821  0.17297075
   0.01681632  0.69276440  0.17123562
   0.85340101  0.30194870  0.09793551
   0.34136507  0.80951512  0.09855519
   0.34221569  0.02505720  0.03075818
   0.18195282  0.31562480  0.24329414
   0.84868544  0.86561239  0.02883669
   0.51465944  0.85885419  0.16982259
   0.68406248  0.13931978  0.09872251
   0.85192597  0.52910207  0.16658059
   0.34826052  0.70073599  0.02297433
   0.01460779  0.35665453  0.02537953
   0.68200936  0.03113129  0.17153538
   0.67980718  0.13838102  0.24324887
   0.51575571  0.18565848  0.02818314
   0.85233480  0.53454304  0.02420950
   0.34794428  0.13961958  0.09995636
   0.69231445  0.80715913  0.09830730
   0.84737986  0.64326387  0.24039262
   0.35363471  0.47321785  0.09489550
   0.68127644  0.02587022  0.02861967
   0.18514094  0.86345625  0.02970118
   0.51657814  0.97542901  0.09996012
   0.84341085  0.19569953  0.17132005
   0.02116681  0.02542408  0.02909101
   0.68765410  0.35999368  0.16948276
   0.85591453  0.18764234  0.02693425
   0.17837599  0.64452368  0.09640931
   0.55584341  0.31966814  0.25226496
   0.17667772  0.52758628  0.02393096
   0.99415698  0.14350946  0.24713910
   0.53659064  0.53547454  0.00882442
   0.34758035  0.15232910  0.24502247
   0.50784022  0.64876383  0.09540285
   0.35794919  0.47971203  0.24921996
   0.35482392  0.35569204  0.17041699
   0.83816130  0.86533799  0.17257234
   0.52003181  0.86542088  0.03216955
   0.18768428  0.86088621  0.17615755
   0.01063078  0.81223402  0.24922266
   0.52018657  0.96856795  0.23945665
   0.68470490  0.47014680  0.09402694
   0.18400847  0.52838007  0.16767249
   0.18877402  0.19379635  0.02819043
   0.68436050  0.34922993  0.02600386
   0.01391367  0.13653061  0.10053691
 
 position of ions in cartesian coordinates  (Angst):
   0.08373693  6.28795160  6.82450480
   1.46972554 12.80736547  7.12970285
   0.12911370  0.36482048  5.04119522
   1.35609743  2.58632126  4.95005728
   1.39775864 12.80914794  2.94302057
   6.72631429  4.14004656  6.85847556
   1.41456684  4.06382733  2.79719471
   4.04975031  2.58515111  4.94204858
   5.38074728  9.24277985  0.71168616
   0.14027346  4.74076211  4.84274156
   5.29381053 10.58004643  7.00616704
   4.02729490  3.93666410  2.80194331
   2.71360603  0.41455139  4.96714046
   6.55753504 12.79255149  7.09285155
   6.60979121  8.41264296  2.76411398
   5.37402021  6.35582997  6.85447149
   5.35132143  9.12540799  4.86618466
   0.12925791 10.62586759  2.91869440
   0.14422466  9.22922650  0.79265557
   2.77871134  4.70327812  0.72573760
   6.60240387 12.80221585  2.88098054
   0.11460971  6.18628326  2.75108246
   4.04742859  8.46379746  6.87526583
   2.77744249 10.59971993  7.09522288
   4.05333850  6.90457929  4.86356696
   2.71885308  9.14263669  4.97437417
   0.13080573  9.10133427  4.92447459
   6.63817816  3.96691285  2.81647533
   2.65530757 10.63517070  2.83429638
   2.66192410  0.32919415  0.88455827
   1.41531969  4.14658541  6.99676726
   6.60149817 11.37216007  0.82929898
   4.00327748 11.28337291  4.88383785
   5.32097876  1.83034211  2.83910840
   6.62670461  6.95118686  4.79060290
   2.70894383  9.20606256  0.66070651
   0.11362668  4.68562188  0.72987655
   5.30500858  0.40899376  4.93309513
   5.28787888  1.81800901  6.99546548
   4.01180487  2.43912638  0.81050394
   6.62988466  7.02266865  0.69622822
   2.70648395  1.83428089  2.87459192
   5.38516665 10.60421836  2.82716771
   6.59134269  8.45101087  6.91332404
   2.75074698  6.21699638  2.72904956
   5.29930755  0.33987533  0.82305802
   1.44011845 11.34383335  0.85416062
   4.01820210 12.81489847  2.87470024
   6.56046978  2.57104266  4.92690254
   0.16464597  0.33401409  0.83661310
   5.34891614  4.72949069  4.87406502
   6.65772963  2.46518963  0.77458786
   1.38749730  8.46756188  2.77258419
   4.32362694  4.19970565  7.25475430
   1.37428731  6.93127284  0.68821769
   7.73304825  1.88538492  7.10734266
   4.17386928  7.03490645  0.25377674
   2.70365311  2.00125474  7.04647146
   3.95023419  8.52326778  2.74364011
   2.78430710  6.30231511  7.16718476
   2.75999723  4.67297709  4.90093204
   6.51963615 11.36855506  4.96291654
   4.04506648 11.36964407  0.92514697
   1.45990182 11.31006895  5.06602165
   0.08269150 10.67089085  7.16726258
   4.04627031 12.72475984  6.88640706
   5.32597581  6.17664996  2.70407093
   1.43130953  6.94170143  4.82200426
   1.46837836  2.54603927  0.81071371
   5.32329693  4.58807977  0.74783136
   0.10822746  1.79369892  2.89128772
 


--------------------------------------------------------------------------------------------------------


 k-point  1 :   0.1250 0.1250 0.0000  plane waves:   98110
 k-point  2 :   0.3750 0.1250 0.0000  plane waves:   98013
 k-point  3 :  -0.3750 0.1250 0.0000  plane waves:   98013
 k-point  4 :  -0.1250 0.1250 0.0000  plane waves:   98110
 k-point  5 :   0.1250 0.3750 0.0000  plane waves:   98128
 k-point  6 :   0.3750 0.3750 0.0000  plane waves:   98036
 k-point  7 :  -0.3750 0.3750 0.0000  plane waves:   98036
 k-point  8 :  -0.1250 0.3750 0.0000  plane waves:   98128

 maximum and minimum number of plane-waves per node :      4107     4059

 maximum number of plane-waves:     98128
 maximum index in each direction: 
   IXMAX=   15   IYMAX=   26   IZMAX=   57
   IXMIN=  -15   IYMIN=  -26   IZMIN=  -57

 WARNING: aliasing errors must be expected set NGX to  62 to avoid them
 WARNING: aliasing errors must be expected set NGY to 106 to avoid them
 WARNING: aliasing errors must be expected set NGZ to 230 to avoid them
 aliasing errors are usually negligible using standard VASP settings
 and one can safely disregard these warnings

 real space projection operators:
  total allocation   :      25079.34 KBytes
  max/ min on nodes  :       1158.19        891.42


 parallel 3D FFT for wavefunctions:
    minimum data exchange during FFTs selected (reduces bandwidth)
 parallel 3D FFT for charge:
    minimum data exchange during FFTs selected (reduces bandwidth)


 total amount of memory used by VASP on root node   164023. kBytes
========================================================================

   base      :      30000. kBytes
   nonlr-proj:       5739. kBytes
   fftplans  :       2917. kBytes
   grid      :       7405. kBytes
   one-center:         93. kBytes
   wavefun   :     117869. kBytes
 
     INWAV:  cpu time    0.0000: real time    0.0000
 Broyden mixing: mesh for mixing (old mesh)
   NGX = 31   NGY = 53   NGZ =115
  (NGX  = 96   NGY  =160   NGZ  =360)
  gives a total of 188945 points

 initial charge density was supplied:
 charge density of overlapping atoms calculated
 number of electron     680.0000000 magnetization      71.0000000
 keeping initial charge density in first step


--------------------------------------------------------------------------------------------------------


 Maximum index for non-local projection operator          289
 Maximum index for augmentation-charges          669 (set IRDMAX)


--------------------------------------------------------------------------------------------------------


 First call to EWALD:  gamma=   0.124
 Maximum number of real-space cells 5x 3x 2
 Maximum number of reciprocal cells 2x 3x 5

 FEWALD executed in parallel
    FEWALD:  cpu time    0.0023: real time    0.0023


----------------------------------------- Iteration    1(   1)  ---------------------------------------


    POTLOK:  cpu time    0.0965: real time    0.1047
    SETDIJ:  cpu time    0.0158: real time    0.0177
     EDDAV:  cpu time   29.3868: real time   29.4265
       DOS:  cpu time    0.0052: real time    0.0052
    --------------------------------------------
      LOOP:  cpu time   29.5069: real time   29.5780

 eigenvalue-minimisations  : 14368
 total energy-change (2. order) : 0.6215640E+04  (-0.3089912E+05)
 number of electron     680.0000000 magnetization      71.0000000
 augmentation part      680.0000000 magnetization      71.0000000

 Free energy of the ion-electron system (eV)
  ---------------------------------------------------
  alpha Z        PSCENC =      1732.79109506
  Ewald energy   TEWEN  =    446213.35186028
  -Hartree energ DENC   =   -511754.96668248
  -exchange      EXHF   =         0.00000000
  -V(xc)+E(xc)   XCENC  =      1433.37497878
  PAW double counting   =     56441.04065227   -59157.84927600
  entropy T*S    EENTRO =         0.00405835
  eigenvalues    EBANDS =      2392.71841245
  atomic energy  EATOM  =     68915.17493688
  Solvation  Ediel_sol  =         0.00000000
  ---------------------------------------------------
  free energy    TOTEN  =      6215.64003559 eV

  energy without entropy =     6215.63597724  energy(sigma->0) =     6215.63902101


--------------------------------------------------------------------------------------------------------




----------------------------------------- Iteration    1(   2)  ---------------------------------------


     EDDAV:  cpu time   28.8641: real time   28.8648
       DOS:  cpu time    0.0046: real time    0.0046
    --------------------------------------------
      LOOP:  cpu time   28.8703: real time   28.8725

 eigenvalue-minimisations  : 14208
 total energy-change (2. order) :-0.5937622E+04  (-0.5646337E+04)
 number of electron     680.0000000 magnetization      71.0000000
 augmentation part      680.0000000 magnetization      71.0000000

 Free energy of the ion-electron system (eV)
  ---------------------------------------------------
  alpha Z        PSCENC =      1732.79109506
  Ewald energy   TEWEN  =    446213.35186028
  -Hartree energ DENC   =   -511754.96668248
  -exchange      EXHF   =         0.00000000
  -V(xc)+E(xc)   XCENC  =      1433.37497878
  PAW double counting   =     56441.04065227   -59157.84927600
  entropy T*S    EENTRO =         0.01416227
  eigenvalues    EBANDS =     -3544.91380639
  atomic energy  EATOM  =     68915.17493688
  Solvation  Ediel_sol  =         0.00000000
  ---------------------------------------------------
  free energy    TOTEN  =       278.01792067 eV

  energy without entropy =      278.00375840  energy(sigma->0) =      278.01438010


--------------------------------------------------------------------------------------------------------




----------------------------------------- Iteration    1(   3)  ---------------------------------------


     EDDAV:  cpu time   32.4358: real time   32.4380
       DOS:  cpu time    0.0050: real time    0.0050
    --------------------------------------------
      LOOP:  cpu time   32.4422: real time   32.4460

 eigenvalue-minimisations  : 16504
 total energy-change (2. order) :-0.7166251E+03  (-0.6576485E+03)
 number of electron     680.0000000 magnetization      71.0000000
 augmentation part      680.0000000 magnetization      71.0000000

 Free energy of the ion-electron system (eV)
  ---------------------------------------------------
  alpha Z        PSCENC =      1732.79109506
  Ewald energy   TEWEN  =    446213.35186028
  -Hartree energ DENC   =   -511754.96668248
  -exchange      EXHF   =         0.00000000
  -V(xc)+E(xc)   XCENC  =      1433.37497878
  PAW double counting   =     56441.04065227   -59157.84927600
  entropy T*S    EENTRO =        -0.02320327
  eigenvalues    EBANDS =     -4261.50152863
  atomic energy  EATOM  =     68915.17493688
  Solvation  Ediel_sol  =         0.00000000
  ---------------------------------------------------
  free energy    TOTEN  =      -438.60716712 eV

  energy without entropy =     -438.58396384  energy(sigma->0) =     -438.60136630


--------------------------------------------------------------------------------------------------------




----------------------------------------- Iteration    1(   4)  ---------------------------------------


     EDDAV:  cpu time   40.1991: real time   40.1998
       DOS:  cpu time    0.0054: real time    0.0054
    --------------------------------------------
      LOOP:  cpu time   40.2059: real time   40.2085

 eigenvalue-minimisations  : 21656
 total energy-change (2. order) :-0.1006340E+03  (-0.9047965E+02)
 number of electron     680.0000000 magnetization      71.0000000
 augmentation part      680.0000000 magnetization      71.0000000

 Free energy of the ion-electron system (eV)
  ---------------------------------------------------
  alpha Z        PSCENC =      1732.79109506
  Ewald energy   TEWEN  =    446213.35186028
  -Hartree energ DENC   =   -511754.96668248
  -exchange      EXHF   =         0.00000000
  -V(xc)+E(xc)   XCENC  =      1433.37497878
  PAW double counting   =     56441.04065227   -59157.84927600
  entropy T*S    EENTRO =         0.00542174
  eigenvalues    EBANDS =     -4362.16410486
  atomic energy  EATOM  =     68915.17493688
  Solvation  Ediel_sol  =         0.00000000
  ---------------------------------------------------
  free energy    TOTEN  =      -539.24111833 eV

  energy without entropy =     -539.24654007  energy(sigma->0) =     -539.24247377


--------------------------------------------------------------------------------------------------------




----------------------------------------- Iteration    1(   5)  ---------------------------------------


     EDDAV:  cpu time   43.4596: real time   43.4604
       DOS:  cpu time    0.0054: real time    0.0054
    CHARGE:  cpu time    0.7542: real time    0.7559
    MIXING:  cpu time    0.0054: real time    0.0070
    --------------------------------------------
      LOOP:  cpu time   44.2261: real time   44.2331

 eigenvalue-minimisations  : 23760
 total energy-change (2. order) :-0.1103021E+02  (-0.1068726E+02)
 number of electron     680.0000058 magnetization      68.6534792
 augmentation part      306.6365222 magnetization      58.7592609

 Broyden mixing:
  rms(total) = 0.98343E+01    rms(broyden)= 0.98343E+01
  rms(prec ) = 0.10086E+02
  weight for this iteration     100.00

 Free energy of the ion-electron system (eV)
  ---------------------------------------------------
  alpha Z        PSCENC =      1732.79109506
  Ewald energy   TEWEN  =    446213.35186028
  -Hartree energ DENC   =   -511754.96668248
  -exchange      EXHF   =         0.00000000
  -V(xc)+E(xc)   XCENC  =      1433.37497878
  PAW double counting   =     56441.04065227   -59157.84927600
  entropy T*S    EENTRO =         0.00526936
  eigenvalues    EBANDS =     -4373.19416268
  atomic energy  EATOM  =     68915.17493688
  Solvation  Ediel_sol  =         0.00000000
  ---------------------------------------------------
  free energy    TOTEN  =      -550.27132853 eV

  energy without entropy =     -550.27659789  energy(sigma->0) =     -550.27264587


--------------------------------------------------------------------------------------------------------




----------------------------------------- Iteration    1(   6)  ---------------------------------------


    POTLOK:  cpu time    0.0836: real time    0.0836
    SETDIJ:  cpu time    0.0103: real time    0.0103
    EDDIAG:  cpu time    4.4422: real time    4.4443
  RMM-DIIS:  cpu time   13.9077: real time   13.9084
    ORTHCH:  cpu time    1.5270: real time    1.5270
       DOS:  cpu time    0.0049: real time    0.0049
    CHARGE:  cpu time    0.7508: real time    0.7509
    MIXING:  cpu time    0.0038: real time    0.0065
    --------------------------------------------
      LOOP:  cpu time   20.7326: real time   20.7436

 eigenvalue-minimisations  : 17690
 total energy-change (2. order) :-0.1481870E+03  (-0.1170371E+03)
 number of electron     680.0000058 magnetization      66.7649946
 augmentation part      390.1097287 magnetization      57.3231045

 Broyden mixing:
  rms(total) = 0.10464E+02    rms(broyden)= 0.10464E+02
  rms(prec ) = 0.11395E+02
  weight for this iteration     100.00

 eigenvalues of (default mixing * dielectric matrix)
  average eigenvalue GAMMA=   0.4484
  0.4484

 Free energy of the ion-electron system (eV)
  ---------------------------------------------------
  alpha Z        PSCENC =      1732.79109506
  Ewald energy   TEWEN  =    446213.35186028
  -Hartree energ DENC   =   -510333.60887570
  -exchange      EXHF   =         0.00000000
  -V(xc)+E(xc)   XCENC  =      1357.60404275
  PAW double counting   =     58731.19448854   -61151.34012601
  entropy T*S    EENTRO =        -0.01126021
  eigenvalues    EBANDS =     -6163.61451610
  atomic energy  EATOM  =     68915.17493688
  Solvation  Ediel_sol  =         0.00000000
  ---------------------------------------------------
  free energy    TOTEN  =      -698.45835450 eV

  energy without entropy =     -698.44709429  energy(sigma->0) =     -698.45553945


--------------------------------------------------------------------------------------------------------




----------------------------------------- Iteration    1(   7)  ---------------------------------------


    POTLOK:  cpu time    0.0824: real time    0.0824
    SETDIJ:  cpu time    0.0098: real time    0.0098
    EDDIAG:  cpu time    4.4355: real time    4.4356
  RMM-DIIS:  cpu time   11.8752: real time   11.8752
    ORTHCH:  cpu time    1.5280: real time    1.5280
       DOS:  cpu time    0.0053: real time    0.0053
    CHARGE:  cpu time    0.7352: real time    0.7352
    MIXING:  cpu time    0.0027: real time    0.0031
    --------------------------------------------
      LOOP:  cpu time   18.6760: real time   18.6788

 eigenvalue-minimisations  : 14956
 total energy-change (2. order) : 0.1657911E+03  (-0.5574096E+02)
 number of electron     680.0000076 magnetization      65.5698310
 augmentation part      318.2394391 magnetization      48.8932589

 Broyden mixing:
  rms(total) = 0.89566E+01    rms(broyden)= 0.89565E+01
  rms(prec ) = 0.11276E+02
  weight for this iteration     100.00

 eigenvalues of (default mixing * dielectric matrix)
  average eigenvalue GAMMA=   0.5074
  0.7478  0.2671

 Free energy of the ion-electron system (eV)
  ---------------------------------------------------
  alpha Z        PSCENC =      1732.79109506
  Ewald energy   TEWEN  =    446213.35186028
  -Hartree energ DENC   =   -511630.13582911
  -exchange      EXHF   =         0.00000000
  -V(xc)+E(xc)   XCENC  =      1404.60796335
  PAW double counting   =     60777.62877788   -63544.18121516
  entropy T*S    EENTRO =         0.00138736
  eigenvalues    EBANDS =     -4401.90620029
  atomic energy  EATOM  =     68915.17493688
  Solvation  Ediel_sol  =         0.00000000
  ---------------------------------------------------
  free energy    TOTEN  =      -532.66722375 eV

  energy without entropy =     -532.66861111  energy(sigma->0) =     -532.66757059


--------------------------------------------------------------------------------------------------------




----------------------------------------- Iteration    1(   8)  ---------------------------------------


    POTLOK:  cpu time    0.0824: real time    0.0824
    SETDIJ:  cpu time    0.0094: real time    0.0094
    EDDIAG:  cpu time    4.4503: real time    4.4505
  RMM-DIIS:  cpu time   12.6432: real time   12.6433
    ORTHCH:  cpu time    1.5278: real time    1.5278
       DOS:  cpu time    0.0052: real time    0.0052
    CHARGE:  cpu time    0.7436: real time    0.7437
    MIXING:  cpu time    0.0027: real time    0.0027
    --------------------------------------------
      LOOP:  cpu time   19.4668: real time   19.4696

 eigenvalue-minimisations  : 16018
 total energy-change (2. order) :-0.1954597E+03  (-0.1541026E+02)
 number of electron     680.0000022 magnetization      63.6272223
 augmentation part      312.3152544 magnetization      47.8151909

 Broyden mixing:
  rms(total) = 0.18354E+02    rms(broyden)= 0.18354E+02
  rms(prec ) = 0.23118E+02
  weight for this iteration     100.00

 eigenvalues of (default mixing * dielectric matrix)
  average eigenvalue GAMMA=   0.5146
  1.1580  0.3073  0.0786

 Free energy of the ion-electron system (eV)
  ---------------------------------------------------
  alpha Z        PSCENC =      1732.79109506
  Ewald energy   TEWEN  =    446213.35186028
  -Hartree energ DENC   =   -511380.32556838
  -exchange      EXHF   =         0.00000000
  -V(xc)+E(xc)   XCENC  =      1405.85148385
  PAW double counting   =     61443.37519762   -64223.81735427
  entropy T*S    EENTRO =        -0.00712810
  eigenvalues    EBANDS =     -4834.52144057
  atomic energy  EATOM  =     68915.17493688
  Solvation  Ediel_sol  =         0.00000000
  ---------------------------------------------------
  free energy    TOTEN  =      -728.12691762 eV

  energy without entropy =     -728.11978952  energy(sigma->0) =     -728.12513560


--------------------------------------------------------------------------------------------------------




----------------------------------------- Iteration    1(   9)  ---------------------------------------


    POTLOK:  cpu time    0.0825: real time    0.0825
    SETDIJ:  cpu time    0.0096: real time    0.0096
    EDDIAG:  cpu time    4.4354: real time    4.4354
  RMM-DIIS:  cpu time   12.3436: real time   12.3437
    ORTHCH:  cpu time    1.5281: real time    1.5281
       DOS:  cpu time    0.0054: real time    0.0054
    CHARGE:  cpu time    0.7557: real time    0.7557
    MIXING:  cpu time    0.0030: real time    0.0037
    --------------------------------------------
      LOOP:  cpu time   19.1653: real time   19.1683

 eigenvalue-minimisations  : 15648
 total energy-change (2. order) : 0.1681182E+03  (-0.1794899E+02)
 number of electron     680.0000008 magnetization      62.5295311
 augmentation part      338.8986597 magnetization      44.2686985

 Broyden mixing:
  rms(total) = 0.11150E+02    rms(broyden)= 0.11150E+02
  rms(prec ) = 0.12399E+02
  weight for this iteration     100.00

 eigenvalues of (default mixing * dielectric matrix)
  average eigenvalue GAMMA=   0.4775
  1.3616  0.3433  0.1169  0.0880

 Free energy of the ion-electron system (eV)
  ---------------------------------------------------
  alpha Z        PSCENC =      1732.79109506
  Ewald energy   TEWEN  =    446213.35186028
  -Hartree energ DENC   =   -511190.97985763
  -exchange      EXHF   =         0.00000000
  -V(xc)+E(xc)   XCENC  =      1402.66018427
  PAW double counting   =     62345.79140058   -65125.35912661
  entropy T*S    EENTRO =         0.02278823
  eigenvalues    EBANDS =     -4853.46203990
  atomic energy  EATOM  =     68915.17493688
  Solvation  Ediel_sol  =         0.00000000
  ---------------------------------------------------
  free energy    TOTEN  =      -560.00875884 eV

  energy without entropy =     -560.03154707  energy(sigma->0) =     -560.01445589


--------------------------------------------------------------------------------------------------------




----------------------------------------- Iteration    1(  10)  ---------------------------------------


    POTLOK:  cpu time    0.0825: real time    0.0825
    SETDIJ:  cpu time    0.0095: real time    0.0095
    EDDIAG:  cpu time    4.4455: real time    4.4456
  RMM-DIIS:  cpu time   12.7571: real time   12.7572
    ORTHCH:  cpu time    1.5282: real time    1.5282
       DOS:  cpu time    0.0052: real time    0.0052
    CHARGE:  cpu time    0.7472: real time    0.7472
    MIXING:  cpu time    0.0031: real time    0.0031
    --------------------------------------------
      LOOP:  cpu time   19.5804: real time   19.5830

 eigenvalue-minimisations  : 16195
 total energy-change (2. order) : 0.6009450E+02  (-0.8544160E+01)
 number of electron     680.0000076 magnetization      60.9951436
 augmentation part      358.2189523 magnetization      43.2939326

 Broyden mixing:
  rms(total) = 0.56974E+01    rms(broyden)= 0.56973E+01
  rms(prec ) = 0.62855E+01
  weight for this iteration     100.00

 eigenvalues of (default mixing * dielectric matrix)
  average eigenvalue GAMMA=   0.4856
  1.5783  0.4487  0.1613  0.1613  0.0783

 Free energy of the ion-electron system (eV)
  ---------------------------------------------------
  alpha Z        PSCENC =      1732.79109506
  Ewald energy   TEWEN  =    446213.35186028
  -Hartree energ DENC   =   -511053.22371817
  -exchange      EXHF   =         0.00000000
  -V(xc)+E(xc)   XCENC  =      1401.06958612
  PAW double counting   =     62826.71371713   -65604.36638819
  entropy T*S    EENTRO =        -0.00623713
  eigenvalues    EBANDS =     -4931.41911046
  atomic energy  EATOM  =     68915.17493688
  Solvation  Ediel_sol  =         0.00000000
  ---------------------------------------------------
  free energy    TOTEN  =      -499.91425849 eV

  energy without entropy =     -499.90802135  energy(sigma->0) =     -499.91269920


--------------------------------------------------------------------------------------------------------




----------------------------------------- Iteration    1(  11)  ---------------------------------------


    POTLOK:  cpu time    0.0827: real time    0.0828
    SETDIJ:  cpu time    0.0092: real time    0.0092
    EDDIAG:  cpu time    4.4451: real time    4.4456
  RMM-DIIS:  cpu time   12.1025: real time   12.1025
    ORTHCH:  cpu time    1.5277: real time    1.5278
       DOS:  cpu time    0.0050: real time    0.0050
    CHARGE:  cpu time    0.7380: real time    0.7380
    MIXING:  cpu time    0.0032: real time    0.0032
    --------------------------------------------
      LOOP:  cpu time   18.9154: real time   18.9186

 eigenvalue-minimisations  : 15350
 total energy-change (2. order) : 0.3133068E+02  (-0.4534278E+01)
 number of electron     680.0000050 magnetization      59.2785637
 augmentation part      358.4741649 magnetization      40.7481451

 Broyden mixing:
  rms(total) = 0.43340E+01    rms(broyden)= 0.43339E+01
  rms(prec ) = 0.48710E+01
  weight for this iteration     100.00

 eigenvalues of (default mixing * dielectric matrix)
  average eigenvalue GAMMA=   0.4863
  1.7131  0.5308  0.2344  0.2344  0.1250  0.0796

 Free energy of the ion-electron system (eV)
  ---------------------------------------------------
  alpha Z        PSCENC =      1732.79109506
  Ewald energy   TEWEN  =    446213.35186028
  -Hartree energ DENC   =   -511213.29650393
  -exchange      EXHF   =         0.00000000
  -V(xc)+E(xc)   XCENC  =      1404.22495252
  PAW double counting   =     63562.91465032   -66367.06101285
  entropy T*S    EENTRO =        -0.00499805
  eigenvalues    EBANDS =     -4716.67855468
  atomic energy  EATOM  =     68915.17493688
  Solvation  Ediel_sol  =         0.00000000
  ---------------------------------------------------
  free energy    TOTEN  =      -468.58357444 eV

  energy without entropy =     -468.57857639  energy(sigma->0) =     -468.58232493


--------------------------------------------------------------------------------------------------------




----------------------------------------- Iteration    1(  12)  ---------------------------------------


    POTLOK:  cpu time    0.0827: real time    0.0827
    SETDIJ:  cpu time    0.0092: real time    0.0092
    EDDIAG:  cpu time    4.4333: real time    4.4334
  RMM-DIIS:  cpu time   12.6031: real time   12.6031
    ORTHCH:  cpu time    1.5285: real time    1.5286
       DOS:  cpu time    0.0052: real time    0.0052
    CHARGE:  cpu time    0.7390: real time    0.7390
    MIXING:  cpu time    0.0033: real time    0.0033
    --------------------------------------------
      LOOP:  cpu time   19.4063: real time   19.4090

 eigenvalue-minimisations  : 15910
 total energy-change (2. order) : 0.1508212E+02  (-0.1836709E+01)
 number of electron     680.0000059 magnetization      57.5040849
 augmentation part      350.9934083 magnetization      38.1692929

 Broyden mixing:
  rms(total) = 0.36754E+01    rms(broyden)= 0.36754E+01
  rms(prec ) = 0.41972E+01
  weight for this iteration     100.00

 eigenvalues of (default mixing * dielectric matrix)
  average eigenvalue GAMMA=   0.4739
  1.7936  0.5408  0.3125  0.3125  0.0790  0.1396  0.1396

 Free energy of the ion-electron system (eV)
  ---------------------------------------------------
  alpha Z        PSCENC =      1732.79109506
  Ewald energy   TEWEN  =    446213.35186028
  -Hartree energ DENC   =   -511460.51332017
  -exchange      EXHF   =         0.00000000
  -V(xc)+E(xc)   XCENC  =      1408.92062123
  PAW double counting   =     64293.47571160   -67124.54326000
  entropy T*S    EENTRO =        -0.00003833
  eigenvalues    EBANDS =     -4432.15906274
  atomic energy  EATOM  =     68915.17493688
  Solvation  Ediel_sol  =         0.00000000
  ---------------------------------------------------
  free energy    TOTEN  =      -453.50145618 eV

  energy without entropy =     -453.50141786  energy(sigma->0) =     -453.50144660


--------------------------------------------------------------------------------------------------------




----------------------------------------- Iteration    1(  13)  ---------------------------------------


    POTLOK:  cpu time    0.0821: real time    0.0821
    SETDIJ:  cpu time    0.0094: real time    0.0094
    EDDIAG:  cpu time    4.4389: real time    4.4390
  RMM-DIIS:  cpu time   13.0190: real time   13.0190
    ORTHCH:  cpu time    1.5269: real time    1.5269
       DOS:  cpu time    0.0051: real time    0.0051
    CHARGE:  cpu time    0.7590: real time    0.7590
    MIXING:  cpu time    0.0035: real time    0.0035
    --------------------------------------------
      LOOP:  cpu time   19.8461: real time   19.8486

 eigenvalue-minimisations  : 16463
 total energy-change (2. order) : 0.1039977E+02  (-0.1192887E+01)
 number of electron     680.0000054 magnetization      55.9426501
 augmentation part      345.6297626 magnetization      36.3468840

 Broyden mixing:
  rms(total) = 0.25418E+01    rms(broyden)= 0.25417E+01
  rms(prec ) = 0.28505E+01
  weight for this iteration     100.00

 eigenvalues of (default mixing * dielectric matrix)
  average eigenvalue GAMMA=   0.4854
  1.8878  0.5791  0.5791  0.2829  0.0792  0.1734  0.1734  0.1286

 Free energy of the ion-electron system (eV)
  ---------------------------------------------------
  alpha Z        PSCENC =      1732.79109506
  Ewald energy   TEWEN  =    446213.35186028
  -Hartree energ DENC   =   -511612.50488532
  -exchange      EXHF   =         0.00000000
  -V(xc)+E(xc)   XCENC  =      1413.06524782
  PAW double counting   =     64885.38922667   -67728.98728068
  entropy T*S    EENTRO =         0.00708472
  eigenvalues    EBANDS =     -4261.38897448
  atomic energy  EATOM  =     68915.17493688
  Solvation  Ediel_sol  =         0.00000000
  ---------------------------------------------------
  free energy    TOTEN  =      -443.10168905 eV

  energy without entropy =     -443.10877377  energy(sigma->0) =     -443.10346023


--------------------------------------------------------------------------------------------------------




----------------------------------------- Iteration    1(  14)  ---------------------------------------


    POTLOK:  cpu time    0.0826: real time    0.0826
    SETDIJ:  cpu time    0.0094: real time    0.0094
    EDDIAG:  cpu time    4.4308: real time    4.4308
  RMM-DIIS:  cpu time   13.0005: real time   13.0005
    ORTHCH:  cpu time    1.5270: real time    1.5271
       DOS:  cpu time    0.0053: real time    0.0053
    CHARGE:  cpu time    0.7421: real time    0.7421
    MIXING:  cpu time    0.0037: real time    0.0037
    --------------------------------------------
      LOOP:  cpu time   19.8033: real time   19.8059

 eigenvalue-minimisations  : 16463
 total energy-change (2. order) : 0.3687845E+01  (-0.6948171E+00)
 number of electron     680.0000060 magnetization      54.2558856
 augmentation part      343.5006939 magnetization      34.1902420

 Broyden mixing:
  rms(total) = 0.20836E+01    rms(broyden)= 0.20836E+01
  rms(prec ) = 0.23025E+01
  weight for this iteration     100.00

 eigenvalues of (default mixing * dielectric matrix)
  average eigenvalue GAMMA=   0.4867
  1.9633  0.6870  0.6870  0.2973  0.2023  0.2023  0.0791  0.1312  0.1312

 Free energy of the ion-electron system (eV)
  ---------------------------------------------------
  alpha Z        PSCENC =      1732.79109506
  Ewald energy   TEWEN  =    446213.35186028
  -Hartree energ DENC   =   -511702.45807652
  -exchange      EXHF   =         0.00000000
  -V(xc)+E(xc)   XCENC  =      1415.45039735
  PAW double counting   =     65216.57030805   -68057.33952390
  entropy T*S    EENTRO =         0.00035558
  eigenvalues    EBANDS =     -4172.95519636
  atomic energy  EATOM  =     68915.17493688
  Solvation  Ediel_sol  =         0.00000000
  ---------------------------------------------------
  free energy    TOTEN  =      -439.41384358 eV

  energy without entropy =     -439.41419916  energy(sigma->0) =     -439.41393248


--------------------------------------------------------------------------------------------------------




----------------------------------------- Iteration    1(  15)  ---------------------------------------


    POTLOK:  cpu time    0.0827: real time    0.0828
    SETDIJ:  cpu time    0.0094: real time    0.0094
    EDDIAG:  cpu time    4.4345: real time    4.4346
  RMM-DIIS:  cpu time   12.5622: real time   12.5622
    ORTHCH:  cpu time    1.5286: real time    1.5286
       DOS:  cpu time    0.0052: real time    0.0052
    CHARGE:  cpu time    0.7527: real time    0.7527
    MIXING:  cpu time    0.0040: real time    0.0040
    --------------------------------------------
      LOOP:  cpu time   19.3815: real time   19.3839

 eigenvalue-minimisations  : 15951
 total energy-change (2. order) : 0.2040993E+01  (-0.4841086E+00)
 number of electron     680.0000050 magnetization      52.2782993
 augmentation part      342.1045985 magnetization      31.7445543

 Broyden mixing:
  rms(total) = 0.20528E+01    rms(broyden)= 0.20527E+01
  rms(prec ) = 0.22781E+01
  weight for this iteration     100.00

 eigenvalues of (default mixing * dielectric matrix)
  average eigenvalue GAMMA=   0.4800
  1.9984  0.7102  0.7102  0.4405  0.2311  0.2311  0.0792  0.1407  0.1407  0.1180

 Free energy of the ion-electron system (eV)
  ---------------------------------------------------
  alpha Z        PSCENC =      1732.79109506
  Ewald energy   TEWEN  =    446213.35186028
  -Hartree energ DENC   =   -511804.95833513
  -exchange      EXHF   =         0.00000000
  -V(xc)+E(xc)   XCENC  =      1417.30732388
  PAW double counting   =     65426.04462466   -68256.18981437
  entropy T*S    EENTRO =         0.00725837
  eigenvalues    EBANDS =     -4080.90180068
  atomic energy  EATOM  =     68915.17493688
  Solvation  Ediel_sol  =         0.00000000
  ---------------------------------------------------
  free energy    TOTEN  =      -437.37285105 eV

  energy without entropy =     -437.38010942  energy(sigma->0) =     -437.37466564


--------------------------------------------------------------------------------------------------------




----------------------------------------- Iteration    1(  16)  ---------------------------------------


    POTLOK:  cpu time    0.0826: real time    0.0826
    SETDIJ:  cpu time    0.0093: real time    0.0093
    EDDIAG:  cpu time    4.4328: real time    4.4331
  RMM-DIIS:  cpu time   12.4613: real time   12.4613
    ORTHCH:  cpu time    1.5274: real time    1.5275
       DOS:  cpu time    0.0051: real time    0.0051
    CHARGE:  cpu time    0.7506: real time    0.7506
    MIXING:  cpu time    0.0039: real time    0.0043
    --------------------------------------------
      LOOP:  cpu time   19.2753: real time   19.2785

 eigenvalue-minimisations  : 15793
 total energy-change (2. order) : 0.2100843E+01  (-0.3754178E+00)
 number of electron     680.0000064 magnetization      50.7333584
 augmentation part      341.6802706 magnetization      29.4425968

 Broyden mixing:
  rms(total) = 0.19814E+01    rms(broyden)= 0.19814E+01
  rms(prec ) = 0.21453E+01
  weight for this iteration     100.00

 eigenvalues of (default mixing * dielectric matrix)
  average eigenvalue GAMMA=   0.4860
  1.9465  0.7726  0.7726  0.7302  0.2516  0.2516  0.0791  0.1533  0.1533  0.1332
  0.1023

 Free energy of the ion-electron system (eV)
  ---------------------------------------------------
  alpha Z        PSCENC =      1732.79109506
  Ewald energy   TEWEN  =    446213.35186028
  -Hartree energ DENC   =   -511903.91949430
  -exchange      EXHF   =         0.00000000
  -V(xc)+E(xc)   XCENC  =      1419.01619041
  PAW double counting   =     65606.59162092   -68422.75938411
  entropy T*S    EENTRO =         0.02018148
  eigenvalues    EBANDS =     -3995.53901516
  atomic energy  EATOM  =     68915.17493688
  Solvation  Ediel_sol  =         0.00000000
  ---------------------------------------------------
  free energy    TOTEN  =      -435.27200854 eV

  energy without entropy =     -435.29219002  energy(sigma->0) =     -435.27705391


--------------------------------------------------------------------------------------------------------




----------------------------------------- Iteration    1(  17)  ---------------------------------------


    POTLOK:  cpu time    0.0827: real time    0.0827
    SETDIJ:  cpu time    0.0092: real time    0.0092
    EDDIAG:  cpu time    4.4480: real time    4.4485
  RMM-DIIS:  cpu time   12.4088: real time   12.4089
    ORTHCH:  cpu time    1.5292: real time    1.5292
       DOS:  cpu time    0.0053: real time    0.0053
    CHARGE:  cpu time    0.7473: real time    0.7473
    MIXING:  cpu time    0.0043: real time    0.0043
    --------------------------------------------
      LOOP:  cpu time   19.2369: real time   19.2398

 eigenvalue-minimisations  : 15757
 total energy-change (2. order) : 0.1625693E+01  (-0.3532241E+00)
 number of electron     680.0000063 magnetization      47.3848563
[...]
    CHARGE:  cpu time    0.7291: real time    0.7291
    FORLOC:  cpu time    0.0156: real time    0.0156
    FORNL :  cpu time    3.8045: real time    3.8049
    STRESS:  cpu time   11.4402: real time   11.4404
    FORCOR:  cpu time    0.0944: real time    0.0946
    FORHAR:  cpu time    0.0252: real time    0.0257
    MIXING:  cpu time    0.0134: real time    0.0134
    OFIELD:  cpu time    0.0007: real time    0.0017

  FORCE on cell =-STRESS in cart. coord.  units (eV):
  Direction    XX          YY          ZZ          XY          YZ          ZX
  --------------------------------------------------------------------------------------
  Alpha Z  1732.79110  1732.79110  1732.79110
  Ewald  485046.28815484970.66496************  -255.52976   196.59217   -73.50075
  Hartree500742.61656500606.36306************  -295.53836   192.27806   -59.70409
  E(xc)   -3584.10838 -3585.29972 -3592.17020     0.76243     0.44159     0.39182
  Local  ************************************   554.34532  -388.64796   132.80792
  n-local -2011.32850 -1998.92755 -2008.82142     6.39471    -0.69413     0.00580
  augment  2914.53900  2911.14459  2940.29647    -2.17447    -0.85771    -0.12532
  Kinetic  6589.38093  6586.26109  6611.04374    -7.81035    -0.15924    -0.67239
  Fock        0.00000     0.00000     0.00000     0.00000     0.00000     0.00000
  -------------------------------------------------------------------------------------
  Total     -25.83187    -7.42256    -6.99747     0.44953    -1.04723    -0.79700
  in kB     -14.08268    -4.04653    -3.81479     0.24507    -0.57091    -0.43450
  external pressure =       -7.31 kB  Pullay stress =        0.00 kB


 VOLUME and BASIS-vectors are now :
 -----------------------------------------------------------------------------
  energy-cutoff  :      600.00
  volume of cell :     2938.87
      direct lattice vectors                 reciprocal lattice vectors
     7.778498173  0.000000000  0.000000000     0.128559521  0.000000000  0.000000000
     0.000000000 13.137704849  0.000000000     0.000000000  0.076116796  0.000000000
     0.000000000  0.000000000 28.758470535     0.000000000  0.000000000  0.034772364

  length of vectors
     7.778498173 13.137704849 28.758470535     0.128559521  0.076116796  0.034772364


 FORCES acting on ions
    electron-ion (+dipol)            ewald-force                    non-local-force                 convergence-correction
 -----------------------------------------------------------------------------------------------
   -.278E+03 -.286E+03 -.307E+04   0.279E+03 0.286E+03 0.307E+04   0.219E+00 0.726E-01 0.548E+00   -.268E-04 0.225E-03 0.798E-04
   -.170E+02 0.253E+03 -.324E+04   0.177E+02 -.252E+03 0.324E+04   -.864E+00 -.429E+00 -.227E+01   -.328E-03 -.316E-03 -.149E-03
   -.241E+02 0.201E+03 -.117E+04   0.243E+02 -.200E+03 0.116E+04   -.247E+00 -.800E+00 0.384E+00   -.478E-04 -.255E-03 -.300E-03
   -.377E+02 -.600E+02 -.100E+04   0.373E+02 0.592E+02 0.100E+04   0.415E+00 0.799E+00 -.299E+00   -.155E-03 -.112E-03 -.372E-03
   0.406E+02 -.385E+01 0.824E+03   -.401E+02 0.320E+01 -.825E+03   -.556E+00 0.659E+00 0.295E+00   -.467E-04 -.814E-04 -.320E-03
   -.504E+02 -.136E+03 -.311E+04   0.517E+02 0.137E+03 0.311E+04   -.120E+01 -.106E+01 0.412E-01   0.604E-04 0.131E-03 0.172E-04
   -.367E+02 0.408E+02 0.104E+04   0.366E+02 -.410E+02 -.104E+04   0.115E+00 0.105E+00 -.117E-01   -.875E-04 0.436E-04 -.573E-03
   0.847E+02 -.886E+02 -.107E+04   -.839E+02 0.875E+02 0.107E+04   -.834E+00 0.112E+01 0.468E+00   0.144E-04 -.120E-03 -.313E-03
   0.220E+02 -.878E+02 0.320E+04   -.212E+02 0.885E+02 -.320E+04   -.782E+00 -.641E+00 0.200E+00   0.253E-04 -.129E-03 -.242E-03
   -.159E+03 -.160E+03 -.992E+03   0.159E+03 0.160E+03 0.991E+03   0.408E+00 0.235E+00 0.546E+00   0.451E-04 0.270E-04 -.255E-03
   -.762E+02 0.492E+00 -.320E+04   0.763E+02 -.168E+01 0.320E+04   0.131E-01 0.126E+01 -.685E+00   0.375E-03 -.133E-03 -.156E-03
   0.102E+02 -.153E+03 0.107E+04   -.103E+02 0.153E+03 -.107E+04   0.223E-01 0.357E+00 -.203E+00   -.113E-04 0.142E-03 -.672E-03
   0.377E+02 0.150E+03 -.118E+04   -.374E+02 -.150E+03 0.118E+04   -.235E+00 -.752E+00 0.111E+01   -.136E-03 -.286E-03 -.471E-03
   0.122E+01 0.257E+03 -.323E+04   -.140E+01 -.257E+03 0.323E+04   0.426E+00 0.587E+00 -.138E+01   0.267E-03 -.267E-03 -.178E-03
   -.111E+01 0.662E+02 0.964E+03   0.131E+01 -.661E+02 -.963E+03   -.172E+00 -.438E-01 -.179E+00   0.403E-04 0.334E-04 -.533E-03
   0.719E+02 -.139E+03 -.311E+04   -.712E+02 0.142E+03 0.311E+04   -.763E+00 -.214E+01 -.375E+00   0.760E-04 0.224E-03 0.568E-04
   -.447E+02 -.383E+02 -.115E+04   0.448E+02 0.379E+02 0.115E+04   -.179E-01 0.448E+00 0.135E+00   0.166E-03 0.899E-04 -.227E-03
   -.137E+02 -.390E+02 0.713E+03   0.137E+02 0.390E+02 -.713E+03   -.366E-01 0.549E-01 0.449E+00   -.650E-04 0.276E-04 -.292E-03
   0.109E+02 -.484E+02 0.314E+04   -.109E+02 0.488E+02 -.314E+04   0.507E-02 -.423E+00 -.560E+00   -.526E-04 -.208E-03 -.242E-03
   -.449E+02 0.116E+03 0.315E+04   0.452E+02 -.115E+03 -.315E+04   -.240E+00 -.105E+01 0.195E+01   0.130E-04 0.198E-03 -.417E-03
   -.602E+02 -.120E+01 0.894E+03   0.597E+02 0.910E+00 -.895E+03   0.500E+00 0.296E+00 0.980E+00   -.531E-04 -.816E-04 -.385E-03
   0.183E+02 0.939E+01 0.968E+03   -.186E+02 -.932E+01 -.967E+03   0.513E+00 0.126E+00 -.705E+00   0.285E-04 0.172E-03 -.692E-03
   0.244E+03 0.593E+02 -.316E+04   -.244E+03 -.595E+02 0.316E+04   -.380E+00 -.368E-01 0.671E+00   0.970E-04 -.927E-04 -.320E-04
   0.195E+03 0.152E+03 -.325E+04   -.195E+03 -.152E+03 0.325E+04   0.228E+00 -.448E+00 0.643E+00   -.311E-03 -.744E-04 -.120E-03
   0.200E+03 0.555E+02 -.110E+04   -.200E+03 -.546E+02 0.110E+04   -.381E-01 -.811E+00 -.393E+00   0.562E-05 0.115E-03 -.255E-03
   0.218E+03 0.906E+02 -.140E+04   -.218E+03 -.912E+02 0.140E+04   -.319E+00 0.633E-01 -.776E+00   -.882E-04 0.983E-04 -.275E-03
   -.167E+03 -.491E+02 -.139E+04   0.166E+03 0.498E+02 0.139E+04   0.369E+00 -.748E+00 -.225E+00   -.920E-04 0.185E-03 -.960E-04
   0.174E+02 -.461E+02 0.113E+04   -.172E+02 0.462E+02 -.113E+04   -.186E+00 -.175E+00 -.124E+01   0.107E-03 0.531E-04 -.643E-03
   0.190E+02 -.510E+02 0.899E+03   -.203E+02 0.524E+02 -.898E+03   0.131E+01 -.136E+01 -.686E+00   0.445E-04 0.102E-03 -.382E-03
   0.592E+01 -.395E+02 0.313E+04   -.567E+01 0.395E+02 -.313E+04   -.246E+00 0.226E-01 0.707E+00   0.142E-03 -.206E-04 -.249E-03
   -.109E+03 -.271E+03 -.314E+04   0.109E+03 0.272E+03 0.314E+04   0.214E+00 -.363E+00 -.187E+01   -.825E-04 0.203E-03 -.953E-06
   0.287E+02 -.566E+02 0.315E+04   -.289E+02 0.567E+02 -.315E+04   0.303E+00 -.114E+00 -.925E+00   -.119E-03 0.545E-04 -.160E-03
   0.386E+02 0.236E+02 -.118E+04   -.389E+02 -.241E+02 0.118E+04   0.376E+00 0.496E+00 0.155E+01   0.488E-04 0.196E-04 -.463E-03
   -.561E+02 -.278E+02 0.106E+04   0.556E+02 0.274E+02 -.106E+04   0.441E+00 0.324E+00 -.838E-01   0.134E-03 -.354E-03 -.617E-03
   -.800E+02 -.411E+02 -.984E+03   0.804E+02 0.415E+02 0.984E+03   -.349E+00 -.281E+00 -.406E+00   -.512E-06 0.238E-03 -.214E-03
   -.257E+02 -.109E+03 0.324E+04   0.249E+02 0.109E+03 -.325E+04   0.799E+00 -.942E-01 0.163E+01   0.183E-04 -.165E-03 -.264E-03
   0.556E+02 0.127E+03 0.318E+04   -.552E+02 -.128E+03 -.318E+04   -.381E+00 0.745E+00 0.872E+00   -.540E-04 0.127E-03 -.356E-03
   -.151E+02 0.162E+03 -.115E+04   0.150E+02 -.160E+03 0.114E+04   0.739E-01 -.118E+01 0.132E+01   0.180E-03 -.298E-03 -.444E-03
   0.726E+02 0.109E+03 -.321E+04   -.740E+02 -.111E+03 0.322E+04   0.134E+01 0.179E+01 -.241E+01   0.238E-03 -.965E-04 -.512E-04
   0.333E+02 -.628E+02 0.319E+04   -.334E+02 0.626E+02 -.319E+04   0.977E-01 0.158E+00 -.653E+00   0.634E-04 -.994E-04 -.453E-03
   0.534E+02 0.142E+03 0.313E+04   -.533E+02 -.143E+03 -.313E+04   -.342E-01 0.776E+00 0.613E+00   -.289E-05 0.153E-04 -.307E-03
   0.111E+03 -.565E+02 0.103E+04   -.110E+03 0.563E+02 -.103E+04   -.606E+00 0.249E+00 -.471E+00   -.134E-03 -.237E-03 -.565E-03
   -.849E+00 -.589E+02 0.932E+03   0.193E+01 0.592E+02 -.931E+03   -.109E+01 -.365E+00 -.808E+00   0.216E-04 0.115E-03 -.396E-03
   -.256E+03 -.938E+02 -.319E+04   0.256E+03 0.945E+02 0.319E+04   0.354E+00 -.397E+00 0.118E+01   0.145E-03 0.125E-03 -.527E-05
   -.673E+02 0.526E+02 0.937E+03   0.673E+02 -.530E+02 -.937E+03   -.154E+00 0.396E+00 0.221E+00   -.586E-04 0.184E-03 -.646E-03
   0.176E+02 0.118E+02 0.319E+04   -.175E+02 -.112E+02 -.319E+04   -.189E-01 -.624E+00 -.888E+00   -.220E-04 -.708E-04 -.222E-03
   -.439E+02 -.615E+02 0.313E+04   0.441E+02 0.614E+02 -.312E+04   -.179E+00 0.948E-01 -.646E+00   0.407E-04 -.225E-04 -.185E-03
   0.192E+02 0.554E+02 0.978E+03   -.192E+02 -.543E+02 -.977E+03   0.257E-01 -.111E+01 -.120E+01   0.920E-04 -.164E-03 -.493E-03
   -.467E+02 0.167E+02 -.977E+03   0.465E+02 -.164E+02 0.977E+03   0.219E+00 -.340E+00 -.119E+00   0.158E-03 -.178E-03 -.282E-03
   -.274E+02 -.119E+03 0.312E+04   0.274E+02 0.119E+03 -.312E+04   0.270E-01 0.195E-01 0.144E+00   -.111E-03 0.628E-04 -.183E-03
   0.120E+03 -.139E+03 -.947E+03   -.120E+03 0.139E+03 0.947E+03   -.253E+00 -.203E-02 -.986E-02   0.642E-04 0.167E-03 -.211E-03
   -.607E+02 -.442E+02 0.317E+04   0.616E+02 0.433E+02 -.316E+04   -.933E+00 0.865E+00 -.496E+00   -.189E-04 -.348E-04 -.362E-03
   -.254E+00 0.526E+02 0.843E+03   -.654E+00 -.522E+02 -.843E+03   0.885E+00 -.470E+00 0.288E+00   -.835E-04 -.248E-04 -.541E-03
   0.197E+03 -.196E+03 -.433E+04   -.197E+03 0.198E+03 0.433E+04   -.161E+00 -.112E+01 0.539E+01   0.715E-04 0.333E-03 0.848E-04
   -.186E+02 0.781E+02 0.412E+04   0.188E+02 -.782E+02 -.411E+04   -.224E+00 0.938E-01 -.470E+01   0.167E-05 0.389E-04 -.349E-03
   -.719E+02 0.642E+02 -.428E+04   0.714E+02 -.642E+02 0.427E+04   0.501E+00 0.385E-01 0.505E+01   -.639E-04 -.192E-03 -.140E-03
   -.318E+02 0.177E+03 0.442E+04   0.325E+02 -.178E+03 -.441E+04   -.729E+00 0.333E+00 -.649E+01   0.122E-04 -.967E-04 -.174E-03
   -.291E+02 0.806E+02 -.419E+04   0.293E+02 -.810E+02 0.418E+04   -.202E+00 0.307E+00 0.405E+01   -.208E-03 -.345E-04 -.646E-04
   -.805E+01 0.147E+03 0.130E+04   0.814E+01 -.147E+03 -.130E+04   -.179E+00 0.196E+00 0.725E+00   0.516E-04 -.249E-04 -.669E-03
   0.116E+03 -.143E+03 -.193E+04   -.115E+03 0.141E+03 0.192E+04   -.181E+01 0.138E+01 0.383E+01   -.186E-04 0.728E-04 0.727E-05
   0.243E+02 -.136E+03 -.674E+03   -.242E+02 0.136E+03 0.675E+03   -.362E-01 -.383E+00 -.626E+00   -.608E-04 0.103E-03 -.143E-03
   -.908E+02 0.541E+02 -.765E+03   0.917E+02 -.545E+02 0.766E+03   -.690E+00 0.148E+00 -.126E+00   0.774E-04 -.432E-05 -.139E-03
   0.128E+02 -.248E+02 0.186E+04   -.125E+02 0.248E+02 -.186E+04   -.280E+00 -.767E-01 -.275E+01   0.443E-04 0.620E-04 -.100E-03
   0.673E+02 0.784E+02 -.838E+03   -.681E+02 -.789E+02 0.838E+03   0.810E+00 0.472E+00 -.486E+00   -.110E-03 -.323E-05 -.121E-03
   -.747E+02 0.126E+03 -.193E+04   0.737E+02 -.125E+03 0.193E+04   0.109E+01 -.207E+01 0.382E+01   -.213E-04 -.394E-04 -.972E-04
   0.192E+02 0.714E+02 -.188E+04   -.192E+02 -.714E+02 0.188E+04   -.127E+00 -.442E+00 0.225E+01   0.420E-04 -.107E-03 -.145E-03
   0.318E+02 0.387E+02 0.688E+03   -.321E+02 -.387E+02 -.689E+03   0.296E+00 -.654E-01 0.906E+00   0.186E-04 0.113E-03 -.406E-03
   -.687E+02 -.318E+02 -.755E+03   0.688E+02 0.313E+02 0.755E+03   0.443E-01 0.878E+00 0.642E+00   -.551E-05 0.786E-04 -.149E-03
   0.247E+02 0.117E+02 0.188E+04   -.248E+02 -.113E+02 -.188E+04   0.151E+00 -.384E+00 -.344E+01   -.280E-04 -.133E-04 -.176E-03
   -.802E+01 -.457E+01 0.188E+04   0.749E+01 0.479E+01 -.187E+04   0.557E+00 -.130E+00 -.267E+01   0.269E-04 0.954E-04 -.248E-03
   -.354E+02 -.210E+02 0.623E+03   0.357E+02 0.211E+02 -.624E+03   -.234E+00 -.107E+00 0.594E+00   0.116E-05 -.984E-04 -.279E-03
 -----------------------------------------------------------------------------------------------
   0.264E+01 0.509E+01 -.195E+01   -.639E-13 0.117E-12 -.728E-11   -.263E+01 -.508E+01 0.193E+01   0.356E-03 -.463E-03 -.194E-01
 
 
 POSITION                                       TOTAL-FORCE (eV/Angst)
 -----------------------------------------------------------------------------------
      0.08374      6.28795      6.82450         0.616190      0.161022      0.074499
      1.46973     12.80737      7.12970        -0.148734     -0.068520      0.022274
      0.12911      0.36482      5.04120         0.004243      0.016067      0.003385
      1.35610      2.58632      4.95006         0.005558     -0.005160      0.013226
      1.39776     12.80915      2.94302        -0.015318      0.016623     -0.012722
      6.72631      4.14005      6.85848         0.068674      0.051058     -0.015481
      1.41457      4.06383      2.79719         0.027952     -0.011241     -0.030029
      4.04975      2.58515      4.94205        -0.026648      0.004346      0.018049
      5.38075      9.24278      0.71169         0.004755     -0.031928     -0.000142
      0.14027      4.74076      4.84274         0.078100      0.108265      0.011287
      5.29381     10.58005      7.00617         0.114423      0.072105      0.131535
      4.02729      3.93666      2.80194        -0.040879     -0.032852     -0.003802
      2.71361      0.41455      4.96714         0.037705      0.008820     -0.000802
      6.55754     12.79255      7.09285         0.244281     -0.348118      0.030960
      6.60979      8.41264      2.76411         0.035187      0.075265     -0.022723
      5.37402      6.35583      6.85447        -0.014206      0.024898      0.008459
      5.35132      9.12541      4.86618         0.087726     -0.001462      0.050040
      0.12926     10.62587      2.91869         0.012299      0.038707     -0.029080
      0.14422      9.22923      0.79266        -0.004073     -0.001893     -0.014314
      2.77871      4.70328      0.72574         0.033474      0.012122      0.011087
      6.60240     12.80222      2.88098         0.010821      0.008995     -0.014184
      0.11461      6.18628      2.75108         0.277712      0.191139      0.215257
      4.04743      8.46380      6.87527         0.032164     -0.289396      0.071480
      2.77744     10.59972      7.09522        -0.314519     -0.069972     -0.114998
      4.05334      6.90458      4.86357        -0.145363      0.097068      0.112354
      2.71885      9.14264      4.97437        -0.361680     -0.494674      0.033144
      0.13081      9.10133      4.92447         0.068848     -0.062562      0.343032
      6.63818      3.96691      2.81648        -0.037713     -0.036744     -0.075107
      2.65531     10.63517      2.83430        -0.001256      0.018394      0.022140
      2.66192      0.32919      0.88456         0.007809      0.013323     -0.029883
      1.41532      4.14659      6.99677         0.014294      0.313164      0.176794
      6.60150     11.37216      0.82930         0.028680     -0.003531      0.015635
      4.00328     11.28337      4.88384         0.061768     -0.000963     -0.029755
      5.32098      1.83034      2.83911        -0.006786     -0.030012     -0.018589
      6.62670      6.95119      4.79060         0.055446      0.053237      0.082854
      2.70894      9.20606      0.66071         0.005555      0.002673     -0.002846
      0.11363      4.68562      0.72988        -0.030440      0.000414     -0.027241
      5.30501      0.40899      4.93310        -0.017858      0.026657     -0.035098
      5.28788      1.81801      6.99547         0.007014      0.075403     -0.008455
      4.01180      2.43913      0.81050        -0.017638     -0.002867     -0.011238
      6.62988      7.02267      0.69623         0.069748     -0.017621     -0.002542
      2.70648      1.83428      2.87459        -0.000026     -0.016503     -0.022296
      5.38517     10.60422      2.82717        -0.016037      0.008506     -0.078290
      6.59134      8.45101      6.91332         0.149395      0.302441     -0.233518
      2.75075      6.21700      2.72905        -0.153970      0.042168      0.080872
      5.29931      0.33988      0.82306         0.019227      0.034680      0.019295
      1.44012     11.34383      0.85416        -0.018237     -0.008348     -0.034242
      4.01820     12.81490      2.87470         0.008623     -0.000387      0.014809
      6.56047      2.57104      4.92690        -0.001068      0.001119      0.015805
      0.16465      0.33401      0.83661        -0.012644     -0.007257     -0.054813
      5.34892      4.72949      4.87407        -0.043974      0.017527      0.045560
      6.65773      2.46519      0.77459        -0.002063     -0.019061     -0.002938
      1.38750      8.46756      2.77258        -0.024015     -0.108162      0.201373
      4.32363      4.19971      7.25475        -0.185015      0.337727      0.139681
      1.37429      6.93127      0.68822        -0.005194     -0.022059      0.038257
      7.73305      1.88538      7.10734        -0.031208      0.037988     -0.002754
      4.17387      7.03491      0.25378        -0.064179     -0.041483     -0.015180
      2.70365      2.00125      7.04647         0.038044     -0.054421      0.023254
      3.95023      8.52327      2.74364        -0.090425      0.108519      0.284625
      2.78431      6.30232      7.16718        -0.755477     -0.074186     -1.749428
      2.76000      4.67298      4.90093         0.066142      0.222805      0.341227
      6.51964     11.36856      4.96292         0.201494     -0.259765      0.435456
      4.04507     11.36964      0.92515        -0.004577     -0.046939     -0.020760
      1.45990     11.31007      5.06602        -0.014927      0.005260      0.172971
      0.08269     10.67089      7.16726         0.116802     -0.426472     -1.116364
      4.04627     12.72476      6.88641        -0.168287     -0.389988     -0.051526
      5.32598      6.17665      2.70407        -0.005082     -0.060923     -0.046700
      1.43131      6.94170      4.82200         0.149674      0.447213      0.696929
      1.46838      2.54604      0.81071        -0.001765     -0.009519      0.001282
      5.32330      4.58808      0.74783         0.031185      0.088820     -0.013617
      0.10823      1.79370      2.89129        -0.009728      0.010448     -0.017430
 -----------------------------------------------------------------------------------
    total drift:                                0.008501      0.009674     -0.039786


--------------------------------------------------------------------------------------------------------



  FREE ENERGIE OF THE ION-ELECTRON SYSTEM (eV)
  ---------------------------------------------------
  free  energy   TOTEN  =      -486.54839839 eV

  energy  without entropy=     -486.51616749  energy(sigma->0) =     -486.54034067
 


--------------------------------------------------------------------------------------------------------


    POTLOK:  cpu time    0.0970: real time    0.0980


--------------------------------------------------------------------------------------------------------


     LOOP+:  cpu time 1741.2770: real time 1741.7238
    4ORBIT:  cpu time    0.0000: real time    0.0000

 total amount of memory used by VASP on root node   164023. kBytes
========================================================================

   base      :      30000. kBytes
   nonlr-proj:       5739. kBytes
   fftplans  :       2917. kBytes
   grid      :       7405. kBytes
   one-center:         93. kBytes
   wavefun   :     117869. kBytes
 
  
  
 General timing and accounting informations for this job:
 ========================================================
  
                  Total CPU time used (sec):     1780.214
                            User time (sec):     1776.092
                          System time (sec):        4.122
                         Elapsed time (sec):     1780.832
  
                   Maximum memory used (kb):      241284.
                   Average memory used (kb):           0.
  
                          Minor page faults:        86529
                          Major page faults:            0
                 Voluntary context switches:        18194
