 vasp.5.4.1 05Feb16 (build Mar 19 2020 08:54:17) complex                        
  
 executed on           IFC91_ompi date 2021.12.14  19:06:58
 running on   96 total cores
 distrk:  each k-point on   96 cores,    1 groups
 distr:  one band on NCORES_PER_BAND=  24 cores,    4 groups


--------------------------------------------------------------------------------------------------------


 INCAR:
 POTCAR:   PAW_PBE Ni 06Sep2000                   
 POTCAR:    PAW_PBE Nb_sv 25May2007               
 POTCAR:    PAW_PBE W 08Apr2002                   
 POTCAR:    PAW_PBE Cl 17Jan2003                  

 ----------------------------------------------------------------------------- 
|                                                                             |
|           W    W    AA    RRRRR   N    N  II  N    N   GGGG   !!!           |
|           W    W   A  A   R    R  NN   N  II  NN   N  G    G  !!!           |
|           W    W  A    A  R    R  N N  N  II  N N  N  G       !!!           |
|           W WW W  AAAAAA  RRRRR   N  N N  II  N  N N  G  GGG   !            |
|           WW  WW  A    A  R   R   N   NN  II  N   NN  G    G                |
|           W    W  A    A  R    R  N    N  II  N    N   GGGG   !!!           |
|                                                                             |
|      For optimal performance we recommend to set                            |
|        NCORE= 4 - approx SQRT( number of cores)                             |
|      NCORE specifies how many cores store one orbital (NPAR=cpu/NCORE).     |
|      This setting can  greatly improve the performance of VASP for DFT.     |
|      The default, NPAR=number of cores might be grossly inefficient         |
|      on modern multi-core architectures or massively parallel machines.     |
|      Do your own testing !!!!                                               |
|      Unfortunately you need to use the default for GW and RPA calculations. |
|      (for HF NCORE is supported but not extensively tested yet)             |
|                                                                             |
 ----------------------------------------------------------------------------- 

 POTCAR:   PAW_PBE Ni 06Sep2000                   
   VRHFIN =Ni:                                                                  
   LEXCH  = PE                                                                  
   EATOM  =  1077.9025 eV,   79.2236 Ry                                         
                                                                                
   TITEL  = PAW_PBE Ni 06Sep2000                                                
   LULTRA =        F    use ultrasoft PP ?                                      
   IUNSCR =        1    unscreen: 0-lin 1-nonlin 2-no                           
   RPACOR =    2.000    partial core radius                                     
   POMASS =   58.690; ZVAL   =   10.000    mass and valenz                      
   RCORE  =    2.300    outmost cutoff radius                                   
   RWIGS  =    2.430; RWIGS  =    1.286    wigner-seitz radius (au A)           
   ENMAX  =  269.533; ENMIN  =  202.150 eV                                      
   RCLOC  =    1.681    cutoff for local pot                                    
   LCOR   =        T    correct aug charges                                     
   LPAW   =        T    paw PP                                                  
   EAUG   =  544.565                                                            
   DEXC   =    -.009                                                            
   RMAX   =    2.808    core radius for proj-oper                               
   RAUG   =    1.300    factor for augmentation sphere                          
   RDEP   =    2.390    radius for radial grids                                 
   QCUT   =   -4.451; QGAM   =    8.902    optimization parameters              
                                                                                
   Description                                                                  
     l     E      TYP  RCUT    TYP  RCUT                                        
     2   .000     23  2.300                                                     
     2   .000     23  2.300                                                     
     0   .000     23  2.300                                                     
     0   .000     23  2.300                                                     
     1  -.200     23  2.300                                                     
     1   .000     23  2.300                                                     
     3   .000      7   .000                                                     
  local pseudopotential read in
  partial core-charges read in
  atomic valenz-charges read in
  non local Contribution for L=           2  read in
    real space projection operators read in
  non local Contribution for L=           2  read in
    real space projection operators read in
  non local Contribution for L=           0  read in
    real space projection operators read in
  non local Contribution for L=           0  read in
    real space projection operators read in
  non local Contribution for L=           1  read in
    real space projection operators read in
  non local Contribution for L=           1  read in
    real space projection operators read in
    PAW grid and wavefunctions read in
 
   number of l-projection  operators is LMAX  =           6
   number of lm-projection operators is LMMAX =          18
 
 POTCAR:    PAW_PBE Nb_sv 25May2007               
   VRHFIN =Nb: 4p5s4d                                                           
   LEXCH  = PE                                                                  
   EATOM  =  1555.1913 eV,  114.3033 Ry                                         
                                                                                
   TITEL  = PAW_PBE Nb_sv 25May2007                                             
   LULTRA =        F    use ultrasoft PP ?                                      
   IUNSCR =        1    unscreen: 0-lin 1-nonlin 2-no                           
   RPACOR =    1.800    partial core radius                                     
   POMASS =   92.910; ZVAL   =   13.000    mass and valenz                      
   RCORE  =    2.400    outmost cutoff radius                                   
   RWIGS  =    2.400; RWIGS  =    1.270    wigner-seitz radius (au A)           
   ENMAX  =  293.235; ENMIN  =  219.927 eV                                      
   ICORE  =        3    local potential                                         
   LCOR   =        T    correct aug charges                                     
   LPAW   =        T    paw PP                                                  
   EAUG   =  455.659                                                            
   DEXC   =    0.000                                                            
   RMAX   =    2.456    core radius for proj-oper                               
   RAUG   =    1.300    factor for augmentation sphere                          
   RDEP   =    2.451    radius for radial grids                                 
   RDEPT  =    1.956    core radius for aug-charge                              
                                                                                
   Atomic configuration                                                         
   11 entries                                                                   
     n  l   j            E        occ.                                          
     1  0  0.50    -18805.2457   2.0000                                         
     2  0  0.50     -2630.2869   2.0000                                         
     2  1  1.50     -2348.4046   6.0000                                         
     3  0  0.50      -438.8757   2.0000                                         
     3  1  1.50      -346.7588   6.0000                                         
     3  2  2.50      -196.2560  10.0000                                         
     4  0  0.50       -58.3859   2.0000                                         
     5  0  0.50        -3.9816   1.0000                                         
     4  1  1.50       -34.5141   6.0000                                         
     4  2  2.50        -3.0408   4.0000                                         
     4  3  2.50        -1.3606   0.0000                                         
   Description                                                                  
     l       E           TYP  RCUT    TYP  RCUT                                 
     0    -58.3859094     23  2.200                                             
     0     -3.9816262     23  2.200                                             
     1    -34.5140738     23  2.200                                             
     1     13.6058260     23  2.200                                             
     2     -3.0408010     23  2.200                                             
     2     -0.1283038     23  2.200                                             
     3     -1.3605826     23  2.400                                             
  local pseudopotential read in
  partial core-charges read in
  partial kinetic energy density read in
  atomic valenz-charges read in
  non local Contribution for L=           0  read in
    real space projection operators read in
  non local Contribution for L=           0  read in
    real space projection operators read in
  non local Contribution for L=           1  read in
    real space projection operators read in
  non local Contribution for L=           1  read in
    real space projection operators read in
  non local Contribution for L=           2  read in
    real space projection operators read in
  non local Contribution for L=           2  read in
    real space projection operators read in
    PAW grid and wavefunctions read in
 
   number of l-projection  operators is LMAX  =           6
   number of lm-projection operators is LMMAX =          18
 
 POTCAR:    PAW_PBE W 08Apr2002                   
   VRHFIN =W : 6s5d                                                             
   LEXCH  = PE                                                                  
   EATOM  =   204.6103 eV,   15.0384 Ry                                         
                                                                                
   TITEL  = PAW_PBE W 08Apr2002                                                 
   LULTRA =        F    use ultrasoft PP ?                                      
   IUNSCR =        1    unscreen: 0-lin 1-nonlin 2-no                           
   RPACOR =    2.330    partial core radius                                     
   POMASS =  183.850; ZVAL   =    6.000    mass and valenz                      
   RCORE  =    2.750    outmost cutoff radius                                   
   RWIGS  =    2.750; RWIGS  =    1.455    wigner-seitz radius (au A)           
   ENMAX  =  223.057; ENMIN  =  167.293 eV                                      
   RCLOC  =    2.147    cutoff for local pot                                    
   LCOR   =        T    correct aug charges                                     
   LPAW   =        T    paw PP                                                  
   EAUG   =  373.438                                                            
   DEXC   =    0.000                                                            
   RMAX   =    2.801    core radius for proj-oper                               
   RAUG   =    1.300    factor for augmentation sphere                          
   RDEP   =    2.886    radius for radial grids                                 
   RDEPT  =    2.230    core radius for aug-charge                              
                                                                                
   Atomic configuration                                                         
   16 entries                                                                   
     n  l   j            E        occ.                                          
     1  0  0.50    -69465.5836   2.0000                                         
     2  0  0.50    -11986.2642   2.0000                                         
     2  1  1.50    -10479.8616   6.0000                                         
     3  0  0.50     -2759.0758   2.0000                                         
     3  1  1.50     -2313.1857   6.0000                                         
     3  2  2.50     -1801.1185  10.0000                                         
     4  0  0.50      -567.6791   2.0000                                         
     4  1  1.50      -421.4694   6.0000                                         
     4  2  2.50      -236.3473  10.0000                                         
     4  3  3.50       -31.2666  14.0000                                         
     5  0  0.50       -77.1085   2.0000                                         
     5  1  1.50       -41.3856   6.0000                                         
     5  2  2.50        -3.3185   5.0000                                         
     6  0  0.50        -5.1438   1.0000                                         
     6  1  0.50        -3.8096   0.0000                                         
     5  3  2.50        -1.3606   0.0000                                         
   Description                                                                  
     l       E           TYP  RCUT    TYP  RCUT                                 
     2     -3.3185288     23  2.500                                             
     2     -1.5965414     23  2.500                                             
     0     -5.1438054     23  2.500                                             
     0      4.9117504     23  2.500                                             
     1      2.7211652     23  2.750                                             
     1     27.2116520     23  2.750                                             
  local pseudopotential read in
  partial core-charges read in
  partial kinetic energy density read in
  atomic valenz-charges read in
  non local Contribution for L=           2  read in
    real space projection operators read in
  non local Contribution for L=           2  read in
    real space projection operators read in
  non local Contribution for L=           0  read in
    real space projection operators read in
  non local Contribution for L=           0  read in
    real space projection operators read in
  non local Contribution for L=           1  read in
    real space projection operators read in
  non local Contribution for L=           1  read in
    real space projection operators read in
    PAW grid and wavefunctions read in
 
   number of l-projection  operators is LMAX  =           6
   number of lm-projection operators is LMMAX =          18
 
 POTCAR:    PAW_PBE Cl 17Jan2003                  
   VRHFIN =Cl: s2p5                                                             
   LEXCH  = PE                                                                  
   EATOM  =   409.7259 eV,   30.1140 Ry                                         
                                                                                
   TITEL  = PAW_PBE Cl 17Jan2003                                                
   LULTRA =        F    use ultrasoft PP ?                                      
   IUNSCR =        1    unscreen: 0-lin 1-nonlin 2-no                           
   RPACOR =    1.500    partial core radius                                     
   POMASS =   35.453; ZVAL   =    7.000    mass and valenz                      
   RCORE  =    1.900    outmost cutoff radius                                   
   RWIGS  =    2.100; RWIGS  =    1.111    wigner-seitz radius (au A)           
   ENMAX  =  280.000; ENMIN  =  196.854 eV                                      
   ICORE  =        2    local potential                                         
   LCOR   =        T    correct aug charges                                     
   LPAW   =        T    paw PP                                                  
   EAUG   =  356.192                                                            
   DEXC   =     .000                                                            
   RMAX   =    2.846    core radius for proj-oper                               
   RAUG   =    1.300    factor for augmentation sphere                          
   RDEP   =    2.020    radius for radial grids                                 
   QCUT   =   -4.392; QGAM   =    8.784    optimization parameters              
                                                                                
   Description                                                                  
     l     E      TYP  RCUT    TYP  RCUT                                        
     0   .000     23  1.900                                                     
     0   .000     23  1.900                                                     
     1   .000     23  1.900                                                     
     1   .000     23  1.900                                                     
     2   .000     23  1.900                                                     
  local pseudopotential read in
  partial core-charges read in
  atomic valenz-charges read in
  non local Contribution for L=           0  read in
    real space projection operators read in
  non local Contribution for L=           0  read in
    real space projection operators read in
  non local Contribution for L=           1  read in
    real space projection operators read in
  non local Contribution for L=           1  read in
    real space projection operators read in
    PAW grid and wavefunctions read in
 
   number of l-projection  operators is LMAX  =           4
   number of lm-projection operators is LMMAX =           8
 
 Optimization of the real space projectors (new method)

 maximal supplied QI-value         = 16.25
 optimisation between [QCUT,QGAM] = [ 12.51, 25.03] = [ 43.85,175.40] Ry 
 Optimized for a Real-space Cutoff    1.31 Angstroem

   l    n(q)    QCUT    max X(q) W(low)/X(q) W(high)/X(q)  e(spline) 
   2      9    12.514     4.811    0.56E-04    0.27E-04    0.54E-07
   2      9    12.514    15.146    0.50E-03    0.83E-03    0.65E-06
   0     10    12.514    14.357    0.12E-04    0.16E-04    0.90E-08
   0     10    12.514    43.282    0.85E-04    0.27E-03    0.25E-06
   1      9    12.514     5.514    0.64E-04    0.11E-04    0.56E-07
   1      9    12.514     7.697    0.40E-03    0.73E-04    0.27E-06
 Optimization of the real space projectors (new method)

 maximal supplied QI-value         = 15.68
 optimisation between [QCUT,QGAM] = [ 12.55, 25.10] = [ 44.09,176.36] Ry 
 Optimized for a Real-space Cutoff    1.56 Angstroem

   l    n(q)    QCUT    max X(q) W(low)/X(q) W(high)/X(q)  e(spline) 
   0     12    12.548    10.201    0.21E-04    0.36E-05    0.83E-07
   0     12    12.548     8.174    0.31E-04    0.62E-05    0.15E-06
   1     11    12.548     3.488    0.79E-05    0.23E-04    0.21E-06
   1     11    12.548     4.917    0.56E-04    0.13E-03    0.11E-05
   2     11    12.548   153.744    0.25E-03    0.10E-03    0.15E-05
   2     11    12.548   126.342    0.25E-03    0.10E-03    0.15E-05
 Optimization of the real space projectors (new method)

 maximal supplied QI-value         = 13.61
 optimisation between [QCUT,QGAM] = [ 12.52, 25.04] = [ 43.88,175.51] Ry 
 Optimized for a Real-space Cutoff    1.56 Angstroem

   l    n(q)    QCUT    max X(q) W(low)/X(q) W(high)/X(q)  e(spline) 
   2     11    12.518   130.855    0.35E-03    0.25E-03    0.12E-05
   2     11    12.518   114.007    0.35E-03    0.25E-03    0.12E-05
   0     12    12.518    84.709    0.29E-04    0.97E-05    0.60E-06
   0     12    12.518    49.163    0.27E-04    0.89E-05    0.55E-06
   1     11    12.518    15.765    0.74E-04    0.89E-04    0.15E-06
   1     11    12.518    10.638    0.55E-04    0.69E-04    0.13E-06
 Optimization of the real space projectors (new method)

 maximal supplied QI-value         = 19.84
 optimisation between [QCUT,QGAM] = [ 12.50, 25.00] = [ 43.76,175.03] Ry 
 Optimized for a Real-space Cutoff    1.06 Angstroem

   l    n(q)    QCUT    max X(q) W(low)/X(q) W(high)/X(q)  e(spline) 
   0      8    12.501     4.846    0.94E-05    0.20E-04    0.50E-08
   0      8    12.501    64.115    0.24E-03    0.14E-03    0.88E-07
   1      7    12.501     3.092    0.55E-04    0.16E-04    0.17E-07
   1      7    12.501    37.586    0.48E-03    0.61E-03    0.91E-07
 PAW_PBE Ni 06Sep2000                   :
 energy of atom  1       EATOM=-1077.9025
 kinetic energy error for atom=    0.0019 (will be added to EATOM!!)
  PAW_PBE Nb_sv 25May2007               :
 energy of atom  2       EATOM=-1555.1913
 kinetic energy error for atom=    0.0037 (will be added to EATOM!!)
  PAW_PBE W 08Apr2002                   :
 energy of atom  3       EATOM= -204.6103
 kinetic energy error for atom=    0.0005 (will be added to EATOM!!)
  PAW_PBE Cl 17Jan2003                  :
 energy of atom  4       EATOM= -409.7259
 kinetic energy error for atom=    0.0013 (will be added to EATOM!!)
 
 
 POSCAR: Ni Nb  W                                
  positions in direct lattice
  velocities in cartesian coordinates
 exchange correlation table for  LEXCH =        8
   RHO(1)=    0.500       N(1)  =     2000
   RHO(2)=  100.500       N(2)  =     4000
 


--------------------------------------------------------------------------------------------------------


 ion  position               nearest neighbor table
   1  0.017  0.480  0.240-   6 2.46  31 2.47  44 2.50  16 2.52  68 2.52  35 2.53  69 2.57  10 2.57
                            60 2.65
   2  0.188  0.971  0.247-  64 2.48  24 2.53  65 2.53   3 2.55  13 2.59  66 2.59  14 2.68  56 2.71

   3  0.016  0.029  0.176-  14 2.52   4 2.53  62 2.55   2 2.55   5 2.57  64 2.57  49 2.58  72 2.58
                            13 2.59  38 2.59  21 2.64  56 2.66
   4  0.176  0.196  0.175-  10 2.50  13 2.51   3 2.53  61 2.53  31 2.54  72 2.57  49 2.59  42 2.62
                             8 2.67   7 2.67  56 2.75
   5  0.180  0.976  0.103-  72 2.48  30 2.51  29 2.52  42 2.52  18 2.53  13 2.53  50 2.54   3 2.57
                            47 2.57  21 2.57  64 2.59  48 2.62
   6  0.869  0.315  0.238-  10 2.41  54 2.42  31 2.45   1 2.46  49 2.47  51 2.49  56 2.51  16 2.60
                            39 2.77
   7  0.182  0.309  0.097-  22 2.49  10 2.50  70 2.50  37 2.52  45 2.53  28 2.56  20 2.56  61 2.57
                            42 2.57  72 2.61  12 2.62   4 2.67
   8  0.520  0.198  0.173-  61 2.44  51 2.51  39 2.51  49 2.52  38 2.52  13 2.53  12 2.56  42 2.60
                            34 2.61   4 2.67  54 2.75
   9  0.692  0.704  0.025-  32 2.46  43 2.52  63 2.52  15 2.53  19 2.54  41 2.55  57 2.56  59 2.59
                            36 2.67
  10  0.020  0.361  0.168-   6 2.41   4 2.50   7 2.50  28 2.53  31 2.53  69 2.54  22 2.54  35 2.56
                            49 2.57  51 2.57   1 2.57  61 2.62
  11  0.681  0.806  0.244-  23 2.46  66 2.50  24 2.51  44 2.51  62 2.52  14 2.54  65 2.56  17 2.57
                            33 2.59
  12  0.518  0.300  0.097-  34 2.47  42 2.48  40 2.49  71 2.51  20 2.54  61 2.55   8 2.56  67 2.59
                            51 2.60  28 2.61  45 2.61   7 2.62
  13  0.348  0.034  0.173-  66 2.45   4 2.51  42 2.52   8 2.53   5 2.53  64 2.58   3 2.59   2 2.59
                            48 2.60  38 2.60  33 2.63
  14  0.844  0.973  0.246-  39 2.50  65 2.51  56 2.52   3 2.52  66 2.53  11 2.54  62 2.54  38 2.61
                             2 2.68
  15  0.850  0.640  0.096-  41 2.49  19 2.51  43 2.51  35 2.51   9 2.53  53 2.56  17 2.57  22 2.57
                            67 2.58  18 2.58  27 2.60  59 2.66
  16  0.693  0.482  0.239-  44 2.42  54 2.45  25 2.47  35 2.48  23 2.52   1 2.52  51 2.56   6 2.60
                            60 2.62
  17  0.688  0.695  0.170-  44 2.50  23 2.51  35 2.53  43 2.53  62 2.54  27 2.55  33 2.55  25 2.56
                            15 2.57  11 2.57  26 2.60  59 2.63
  18  0.017  0.810  0.101-  53 2.51  27 2.52  29 2.52   5 2.53  43 2.53  21 2.53  47 2.54  19 2.54
                            32 2.57  62 2.58  15 2.58  64 2.62
  19  0.019  0.702  0.028-  53 2.46  47 2.48  15 2.51  32 2.52  18 2.54   9 2.54  41 2.56  36 2.57
                            55 2.61
  20  0.357  0.358  0.025-  45 2.51  70 2.53  12 2.54  71 2.55   7 2.56  40 2.58  55 2.63  37 2.67
                            57 2.76
  21  0.849  0.975  0.100-  72 2.49  32 2.50  34 2.51  43 2.52  62 2.52  46 2.52  50 2.53  18 2.53
                            38 2.53   5 2.57  48 2.59   3 2.64
  22  0.015  0.471  0.096-   7 2.49  69 2.50  37 2.52  55 2.53  35 2.53  10 2.54  28 2.55  41 2.55
                            67 2.57  15 2.57  53 2.61  45 2.64
  23  0.520  0.644  0.241-  26 2.45  11 2.46  24 2.49  17 2.51  16 2.52  60 2.52  44 2.56  25 2.57
                            68 2.59
  24  0.359  0.807  0.248-  23 2.49  66 2.49  11 2.51   2 2.53  68 2.53  64 2.55  26 2.59  33 2.64
                            65 2.72
  25  0.523  0.527  0.169-  16 2.47  51 2.54  17 2.56  35 2.56  23 2.57  61 2.59  26 2.60  60 2.60
                            45 2.61  67 2.62  59 2.67  69 2.67
  26  0.354  0.697  0.173-  23 2.45  33 2.48  64 2.52  68 2.52  24 2.59  29 2.60  25 2.60  69 2.60
                            17 2.60  59 2.61  27 2.63  53 2.68
  27  0.016  0.693  0.171-  44 2.50  35 2.51  69 2.51  18 2.52  17 2.55  53 2.56  68 2.57  64 2.59
                            15 2.60  26 2.63  62 2.66  65 2.71
  28  0.853  0.302  0.098-  72 2.50  34 2.51  10 2.53  71 2.53  52 2.53  49 2.54  37 2.54  51 2.55
                            22 2.55   7 2.56  67 2.57  12 2.61
  29  0.341  0.810  0.099-  47 2.43  63 2.47  59 2.48  53 2.51   5 2.52  18 2.52  33 2.54  48 2.57
                            26 2.60  36 2.60  64 2.62  43 2.73
  30  0.342  0.025  0.031-  47 2.45  48 2.49  50 2.50  40 2.51   5 2.51  63 2.51  42 2.51  70 2.52
                            46 2.64
  31  0.183  0.320  0.242-   6 2.45   1 2.47  60 2.48  61 2.51  10 2.53   4 2.54  56 2.78  54 2.95

  32  0.849  0.866  0.029-   9 2.46  43 2.46  46 2.48  50 2.49  21 2.50  19 2.52  63 2.56  18 2.57
                            47 2.62
  33  0.515  0.860  0.170-  66 2.45  26 2.48  48 2.52  62 2.52  29 2.54  64 2.55  17 2.55  43 2.57
                            11 2.59  38 2.61  13 2.63  24 2.64
  34  0.684  0.139  0.099-  12 2.47  40 2.49  46 2.51  28 2.51  21 2.51  38 2.51  48 2.51  52 2.54
                            49 2.55  72 2.58   8 2.61  42 2.62
  35  0.852  0.529  0.167-  16 2.48  27 2.51  15 2.51   1 2.53  17 2.53  22 2.53  69 2.55  51 2.55
                            10 2.56  25 2.56  67 2.59  44 2.60
  36  0.348  0.701  0.023-  47 2.49  59 2.52  63 2.56  19 2.57  53 2.60  29 2.60  55 2.64  57 2.65
                             9 2.67
  37  0.015  0.357  0.025-  22 2.52   7 2.52  70 2.53  28 2.54  52 2.54  71 2.57  55 2.58  41 2.66
                            20 2.67
  38  0.683  0.032  0.171-  66 2.46  39 2.49  49 2.49  62 2.50  34 2.51   8 2.52  48 2.53  21 2.53
                             3 2.59  13 2.60  14 2.61  33 2.61
  39  0.680  0.136  0.244-  56 2.47  38 2.49  14 2.50   8 2.51  66 2.52  54 2.54  49 2.55   6 2.77

  40  0.516  0.186  0.028-  46 2.46  34 2.49  12 2.49  30 2.51  71 2.52  42 2.53  70 2.55  20 2.58
                            52 2.65
  41  0.852  0.535  0.024-  15 2.49  57 2.50  55 2.52  67 2.54   9 2.55  22 2.55  19 2.56  37 2.66
                            71 2.76
  42  0.348  0.140  0.100-  12 2.48  30 2.51  70 2.52  13 2.52   5 2.52  40 2.53  48 2.53   7 2.57
                            72 2.59   8 2.60   4 2.62  34 2.62
  43  0.692  0.807  0.098-  63 2.45  32 2.46  15 2.51   9 2.52  21 2.52  18 2.53  59 2.53  17 2.53
                            62 2.53  33 2.57  48 2.60  29 2.73
  44  0.849  0.642  0.241-  16 2.42  27 2.50  17 2.50   1 2.50  11 2.51  65 2.54  23 2.56  35 2.60
                            68 2.63
  45  0.354  0.473  0.095-  20 2.51   7 2.53  69 2.54  55 2.56  67 2.58  59 2.60  25 2.61  12 2.61
                            53 2.63  22 2.64  61 2.65  57 2.97
  46  0.681  0.026  0.029-  63 2.45  40 2.46  32 2.48  34 2.51  48 2.51  52 2.52  21 2.52  30 2.64
                            50 2.64
  47  0.185  0.863  0.030-  29 2.43  30 2.45  19 2.48  50 2.48  36 2.49  18 2.54   5 2.57  63 2.61
                            32 2.62
  48  0.516  0.976  0.100-  63 2.43  30 2.49  46 2.51  34 2.51  33 2.52  42 2.53  38 2.53  29 2.57
                            21 2.59  13 2.60  43 2.60   5 2.62
  49  0.844  0.196  0.172-  51 2.47   6 2.47  38 2.49   8 2.52  28 2.54  72 2.54  34 2.55  39 2.55
                            10 2.57   3 2.58   4 2.59  56 2.71
  50  0.021  0.025  0.029-  47 2.48  52 2.49  32 2.49  30 2.50  21 2.53   5 2.54  72 2.55  70 2.57
                            46 2.64
  51  0.689  0.360  0.170-  49 2.47   6 2.49   8 2.51  25 2.54  28 2.55  35 2.55  16 2.56  10 2.57
                            61 2.59  12 2.60  67 2.61  54 2.62
  52  0.856  0.188  0.027-  50 2.49  71 2.51  46 2.52  28 2.53  34 2.54  37 2.54  72 2.56  70 2.59
                            40 2.65
  53  0.178  0.645  0.096-  19 2.46  69 2.49  18 2.51  29 2.51  15 2.56  59 2.56  27 2.56  55 2.59
                            36 2.60  22 2.61  45 2.63  26 2.68
  54  0.561  0.315  0.252-   6 2.42  16 2.45  39 2.54  51 2.62  60 2.68   8 2.75  61 2.89  31 2.95

  55  0.177  0.528  0.024-  41 2.52  22 2.53  45 2.56  37 2.58  53 2.59  19 2.61  20 2.63  36 2.64
                            57 2.83
  56  0.995  0.142  0.253-  39 2.47   6 2.51  14 2.52   3 2.66  49 2.71   2 2.71   4 2.75  31 2.78

  57  0.537  0.535  0.009-  41 2.50   9 2.56  36 2.65  71 2.75  20 2.76  55 2.83  67 2.84  59 2.91
                            45 2.97
  58  0.342  0.153  0.351-  73 2.54
  59  0.508  0.649  0.095-  29 2.48  36 2.52  43 2.53  53 2.56   9 2.59  45 2.60  26 2.61  17 2.63
                            15 2.66  25 2.67  67 2.72  57 2.91
  60  0.357  0.479  0.245-  31 2.48  23 2.52  68 2.53  25 2.60  16 2.62   1 2.65  54 2.68  61 2.69
                            69 2.75
  61  0.356  0.356  0.170-   8 2.44  31 2.51   4 2.53  12 2.55   7 2.57  51 2.59  25 2.59  10 2.62
                            45 2.65  69 2.65  60 2.69  54 2.89
  62  0.839  0.866  0.172-  38 2.50  11 2.52  21 2.52  33 2.52  43 2.53  17 2.54  14 2.54   3 2.55
                            18 2.58  27 2.66  65 2.68  64 2.72  66 3.41
  63  0.520  0.865  0.032-  48 2.43  43 2.45  46 2.45  29 2.47  30 2.51   9 2.52  36 2.56  32 2.56
                            47 2.61
  64  0.188  0.862  0.176-   2 2.48  26 2.52  33 2.55  24 2.55   3 2.57  13 2.58  27 2.59   5 2.59
                            65 2.60  29 2.62  18 2.62  62 2.72  66 3.45  68 3.47
  65  0.010  0.809  0.249-  14 2.51   2 2.53  44 2.54  11 2.56  68 2.59  64 2.60  62 2.68  27 2.71
                            24 2.72
  66  0.520  0.970  0.239-  33 2.45  13 2.45  38 2.46  24 2.49  11 2.50  39 2.52  14 2.53   2 2.59
                            62 3.41  64 3.45
  67  0.685  0.470  0.094-  71 2.52  41 2.54  22 2.57  28 2.57  45 2.58  15 2.58  12 2.59  35 2.59
                            51 2.61  25 2.62  59 2.72  57 2.84
  68  0.187  0.643  0.244-  26 2.52   1 2.52  24 2.53  60 2.53  27 2.57  65 2.59  23 2.59  44 2.63
                            69 2.72  64 3.47
  69  0.180  0.529  0.165-  53 2.49  22 2.50  27 2.51  10 2.54  45 2.54  35 2.55   1 2.57  26 2.60
                            61 2.65  25 2.67  68 2.72  60 2.75
  70  0.189  0.194  0.028-   7 2.50  42 2.52  30 2.52  20 2.53  37 2.53  40 2.55  50 2.57  52 2.59
                            72 2.61
  71  0.684  0.349  0.026-  52 2.51  12 2.51  40 2.52  67 2.52  28 2.53  20 2.55  37 2.57  57 2.75
                            41 2.76
  72  0.015  0.137  0.101-   5 2.48  21 2.49  28 2.50  49 2.54  50 2.55  52 2.56   4 2.57  34 2.58
                             3 2.58  42 2.59   7 2.61  70 2.61
  73  0.167  0.151  0.426-  58 2.54
 
  LATTYP: Found a simple orthorhombic cell.
 ALAT       =     7.7784981728
 B/A-ratio  =     1.6889770438
 C/A-ratio  =     3.6971751997
  
  Lattice vectors:
  
 A1 = (   7.7784981728,   0.0000000000,   0.0000000000)
 A2 = (   0.0000000000,  13.1377048492,   0.0000000000)
 A3 = (   0.0000000000,   0.0000000000,  28.7584705353)


Analysis of symmetry for initial positions (statically):
=====================================================================
 Subroutine PRICEL returns:
 Original cell was already a primitive cell.
 

 Routine SETGRP: Setting up the symmetry group for a 
 simple orthorhombic supercell.


 Subroutine GETGRP returns: Found  1 space group operations
 (whereof  1 operations were pure point group operations)
 out of a pool of  8 trial point group operations.


The static configuration has the point symmetry C_1 .


Analysis of symmetry for dynamics (positions and initial velocities):
=====================================================================
 Subroutine PRICEL returns:
 Original cell was already a primitive cell.
 

 Routine SETGRP: Setting up the symmetry group for a 
 simple orthorhombic supercell.


 Subroutine GETGRP returns: Found  1 space group operations
 (whereof  1 operations were pure point group operations)
 out of a pool of  8 trial point group operations.


The dynamic configuration has the point symmetry C_1 .


Analysis of constrained symmetry for selective dynamics:
=====================================================================
 Subroutine PRICEL returns:
 Original cell was already a primitive cell.
 

 Routine SETGRP: Setting up the symmetry group for a 
 simple orthorhombic supercell.


 Subroutine GETGRP returns: Found  1 space group operations
 (whereof  1 operations were pure point group operations)
 out of a pool of  8 trial point group operations.


The constrained configuration has the point symmetry C_1 .


Analysis of structural, dynamic, and magnetic symmetry:
=====================================================================
 Subroutine PRICEL returns:
 Original cell was already a primitive cell.
 

 Routine SETGRP: Setting up the symmetry group for a 
 simple orthorhombic supercell.


 Subroutine GETGRP returns: Found  1 space group operations
 (whereof  1 operations were pure point group operations)
 out of a pool of  8 trial point group operations.


The magnetic configuration has the point symmetry C_1 .


 Subroutine INISYM returns: Found  1 space group operations
 (whereof  1 operations are pure point group operations),
 and found     1 'primitive' translations

 
 
 KPOINTS: k-points                                

Automatic generation of k-mesh.
Space group operators:
 irot       det(A)        alpha          n_x          n_y          n_z        tau_x        tau_y        tau_z
    1     1.000000     0.000000     1.000000     0.000000     0.000000     0.000000     0.000000     0.000000
 
 Subroutine IBZKPT returns following result:
 ===========================================
 
 Found      8 irreducible k-points:
 
 Following reciprocal coordinates:
            Coordinates               Weight
  0.125000  0.125000  0.000000      2.000000
  0.375000  0.125000  0.000000      2.000000
 -0.375000  0.125000  0.000000      2.000000
 -0.125000  0.125000  0.000000      2.000000
  0.125000  0.375000  0.000000      2.000000
  0.375000  0.375000  0.000000      2.000000
 -0.375000  0.375000  0.000000      2.000000
 -0.125000  0.375000  0.000000      2.000000
 
 Following cartesian coordinates:
            Coordinates               Weight
  0.016070  0.009515  0.000000      2.000000
  0.048210  0.009515  0.000000      2.000000
 -0.048210  0.009515  0.000000      2.000000
 -0.016070  0.009515  0.000000      2.000000
  0.016070  0.028544  0.000000      2.000000
  0.048210  0.028544  0.000000      2.000000
 -0.048210  0.028544  0.000000      2.000000
 -0.016070  0.028544  0.000000      2.000000
 


--------------------------------------------------------------------------------------------------------




 Dimension of arrays:
   k-points           NKPTS =      8   k-points in BZ     NKDIM =      8   number of bands    NBANDS=    452
   number of dos      NEDOS =    301   number of ions     NIONS =     73
   non local maximal  LDIM  =      6   non local SUM 2l+1 LMDIM =     18
   total plane-waves  NPLWV = 691200
   max r-space proj   IRMAX =   3792   max aug-charges    IRDMAX=  13623
   dimension x,y,z NGX =    48 NGY =   80 NGZ =  180
   dimension x,y,z NGXF=    96 NGYF=  160 NGZF=  360
   support grid    NGXF=    96 NGYF=  160 NGZF=  360
   ions per type =              53   6  13   1
 NGX,Y,Z   is equivalent  to a cutoff of  10.26, 10.12, 10.41 a.u.
 NGXF,Y,Z  is equivalent  to a cutoff of  20.52, 20.25, 20.81 a.u.


 I would recommend the setting:
   dimension x,y,z NGX =    47 NGY =   79 NGZ =  172
 SYSTEM =  (110) surface                           
 POSCAR =  Ni Nb  W                                

 Startparameter for this run:
   NWRITE =      2    write-flag & timer
   PREC   = normal    normal or accurate (medium, high low for compatibility)
   ISTART =      0    job   : 0-new  1-cont  2-samecut
   ICHARG =      2    charge: 1-file 2-atom 10-const
   ISPIN  =      2    spin polarized calculation?
   LNONCOLLINEAR =      F non collinear calculations
   LSORBIT =      F    spin-orbit coupling
   INIWAV =      1    electr: 0-lowe 1-rand  2-diag
   LASPH  =      F    aspherical Exc in radial PAW
   METAGGA=      F    non-selfconsistent MetaGGA calc.

 Electronic Relaxation 1
   ENCUT  =  600.0 eV  44.10 Ry    6.64 a.u.  15.54 26.24 57.44*2*pi/ulx,y,z
   ENINI  =  600.0     initial cutoff
   ENAUG  =  544.6 eV  augmentation charge cutoff
   NELM   =     60;   NELMIN=  8; NELMDL= -5     # of ELM steps 
   EDIFF  = 0.1E-05   stopping-criterion for ELM
   LREAL  =      T    real-space projection
   NLSPLINE    = F    spline interpolate recip. space projectors
   LCOMPAT=      F    compatible to vasp.4.4
   GGA_COMPAT  = T    GGA compatible to vasp.4.4-vasp.4.6
   LMAXPAW     = -100 max onsite density
   LMAXMIX     =    2 max onsite mixed and CHGCAR
   VOSKOWN=      0    Vosko Wilk Nusair interpolation
   ROPT   =   -0.00050  -0.00050  -0.00050  -0.00050
 Ionic relaxation
   EDIFFG = -.1E-01   stopping-criterion for IOM
   NSW    =      0    number of steps for IOM
   NBLOCK =      1;   KBLOCK =      1    inner block; outer block 
   IBRION =     -1    ionic relax: 0-MD 1-quasi-New 2-CG
   NFREE  =      0    steps in history (QN), initial steepest desc. (CG)
   ISIF   =      2    stress and relaxation
   IWAVPR =     10    prediction:  0-non 1-charg 2-wave 3-comb
   ISYM   =      2    0-nonsym 1-usesym 2-fastsym
   LCORR  =      T    Harris-Foulkes like correction to forces

   POTIM  = 0.1000    time-step for ionic-motion
   TEIN   =    0.0    initial temperature
   TEBEG  =    0.0;   TEEND  =   0.0 temperature during run
   SMASS  =  -3.00    Nose mass-parameter (am)
   estimated Nose-frequenzy (Omega)   =  0.10E-29 period in steps =****** mass=  -0.138E-26a.u.
   SCALEE = 1.0000    scale energy and forces
   NPACO  =    256;   APACO  = 16.0  distance and # of slots for P.C.
   PSTRESS=    0.0 pullay stress

  Mass of Ions in am
   POMASS =  58.69 92.91183.85 35.45
  Ionic Valenz
   ZVAL   =  10.00 13.00  6.00  7.00
  Atomic Wigner-Seitz radii
   RWIGS  =  -1.00 -1.00 -1.00 -1.00
  virtual crystal weights 
   VCA    =   1.00  1.00  1.00  1.00
   NELECT =     693.0000    total number of electrons
   NUPDOWN=      -1.0000    fix difference up-down

 DOS related values:
   EMIN   =  10.00;   EMAX   =-10.00  energy-range for DOS
   EFERMI =   0.00
   ISMEAR =     2;   SIGMA  =   0.20  broadening in eV -4-tet -1-fermi 0-gaus

 Electronic relaxation 2 (details)
   IALGO  =     68    algorithm
   LDIAG  =      T    sub-space diagonalisation (order eigenvalues)
   LSUBROT=      F    optimize rotation matrix (better conditioning)
   TURBO    =      0    0=normal 1=particle mesh
   IRESTART =      0    0=no restart 2=restart with 2 vectors
   NREBOOT  =      0    no. of reboots
   NMIN     =      0    reboot dimension
   EREF     =   0.00    reference energy to select bands
   IMIX   =      4    mixing-type and parameters
     AMIX     =   0.40;   BMIX     =  1.00
     AMIX_MAG =   1.60;   BMIX_MAG =  1.00
     AMIN     =   0.10
     WC   =   100.;   INIMIX=   1;  MIXPRE=   1;  MAXMIX= -45

 Intra band minimization:
   WEIMIN = 0.0000     energy-eigenvalue tresh-hold
   EBREAK =  0.55E-09  absolut break condition
   DEPER  =   0.30     relativ break condition  

   TIME   =   0.40     timestep for ELM

  volume/ion in A,a.u.               =      40.26       271.68
  Fermi-wavevector in a.u.,A,eV,Ry     =   1.011406  1.911280 13.917975  1.022942
  Thomas-Fermi vector in A             =   2.144454
 
 Write flags
   LWAVE  =      F    write WAVECAR
   LCHARG =      F    write CHGCAR
   LVTOT  =      F    write LOCPOT, total local potential
   LVHAR  =      F    write LOCPOT, Hartree potential only
   LELF   =      F    write electronic localiz. function (ELF)
   LORBIT =      0    0 simple, 1 ext, 2 COOP (PROOUT)


 Dipole corrections
   LMONO  =      F    monopole corrections only (constant potential shift)
   LDIPOL =      F    correct potential (dipole corrections)
   IDIPOL =      0    1-x, 2-y, 3-z, 4-all directions 
   EPSILON=  1.0000000 bulk dielectric constant

 Exchange correlation treatment:
   GGA     =    --    GGA type
   LEXCH   =     8    internal setting for exchange type
   VOSKOWN=      0    Vosko Wilk Nusair interpolation
   LHFCALC =     F    Hartree Fock is set to
   LHFONE  =     F    Hartree Fock one center treatment
   AEXX    =    0.0000 exact exchange contribution

 Linear response parameters
   LEPSILON=     F    determine dielectric tensor
   LRPA    =     F    only Hartree local field effects (RPA)
   LNABLA  =     F    use nabla operator in PAW spheres
   LVEL    =     F    velocity operator in full k-point grid
   LINTERFAST=   F  fast interpolation
   KINTER  =     0    interpolate to denser k-point grid
   CSHIFT  =0.1000    complex shift for real part using Kramers Kronig
   OMEGAMAX=  -1.0    maximum frequency
   DEG_THRESHOLD= 0.2000000E-02 threshold for treating states as degnerate
   RTIME   =    0.100 relaxation time in fs

 Orbital magnetization related:
   ORBITALMAG=     F  switch on orbital magnetization
   LCHIMAG   =     F  perturbation theory with respect to B field
   DQ        =  0.001000  dq finite difference perturbation B field



--------------------------------------------------------------------------------------------------------


 Static calculation
 charge density and potential will be updated during run
 spin polarized calculation
 RMM-DIIS sequential band-by-band and
  variant of blocked Davidson during initial phase
 perform sub-space diagonalisation
    before iterative eigenvector-optimisation
 modified Broyden-mixing scheme, WC =      100.0
 initial mixing is a Kerker type mixing with AMIX =  0.4000 and BMIX =      1.0000
 Hartree-type preconditioning will be used
 using additional bands          105
 real space projection scheme for non local part
 use partial core corrections
 calculate Harris-corrections to forces 
   (improved forces if not selfconsistent)
 use gradient corrections 
 use of overlap-Matrix (Vanderbilt PP)
 Methfessel and Paxton  Order N= 2 SIGMA  =   0.20


--------------------------------------------------------------------------------------------------------


  energy-cutoff  :      600.00
  volume of cell :     2938.87
      direct lattice vectors                 reciprocal lattice vectors
     7.778498173  0.000000000  0.000000000     0.128559521  0.000000000  0.000000000
     0.000000000 13.137704849  0.000000000     0.000000000  0.076116796  0.000000000
     0.000000000  0.000000000 28.758470535     0.000000000  0.000000000  0.034772364

  length of vectors
     7.778498173 13.137704849 28.758470535     0.128559521  0.076116796  0.034772364


 
 k-points in units of 2pi/SCALE and weight: k-points                                
   0.01606994  0.00951460  0.00000000       0.125
   0.04820982  0.00951460  0.00000000       0.125
  -0.04820982  0.00951460  0.00000000       0.125
  -0.01606994  0.00951460  0.00000000       0.125
   0.01606994  0.02854380  0.00000000       0.125
   0.04820982  0.02854380  0.00000000       0.125
  -0.04820982  0.02854380  0.00000000       0.125
  -0.01606994  0.02854380  0.00000000       0.125
 
 k-points in reciprocal lattice and weights: k-points                                
   0.12500000  0.12500000  0.00000000       0.125
   0.37500000  0.12500000  0.00000000       0.125
  -0.37500000  0.12500000  0.00000000       0.125
  -0.12500000  0.12500000  0.00000000       0.125
   0.12500000  0.37500000  0.00000000       0.125
   0.37500000  0.37500000  0.00000000       0.125
  -0.37500000  0.37500000  0.00000000       0.125
  -0.12500000  0.37500000  0.00000000       0.125
 
 position of ions in fractional coordinates (direct lattice) 
   0.01677874  0.48028891  0.23954171
   0.18820179  0.97054280  0.24685784
   0.01574459  0.02903905  0.17629135
   0.17649377  0.19608488  0.17451447
   0.18015205  0.97593545  0.10274937
   0.86893976  0.31452601  0.23834747
   0.18185604  0.30932552  0.09726507
   0.51983291  0.19771132  0.17324775
   0.69174629  0.70353079  0.02474701
   0.01981753  0.36131998  0.16839133
   0.68110895  0.80569113  0.24361912
   0.51774710  0.29964626  0.09743019
   0.34813567  0.03396624  0.17342784
   0.84396355  0.97279193  0.24610250
   0.84975159  0.64034343  0.09611478
   0.69331140  0.48248299  0.23896314
   0.68849218  0.69499942  0.16989713
   0.01706562  0.80960392  0.10122276
   0.01854145  0.70249915  0.02756251
   0.35722980  0.35799846  0.02523561
   0.84945476  0.97503240  0.09999980
   0.01473417  0.47088006  0.09566164
   0.52042141  0.64425825  0.24079852
   0.35864406  0.80695387  0.24779236
   0.52282944  0.52697314  0.16943865
   0.35395744  0.69743397  0.17287151
   0.01625573  0.69330878  0.17080726
   0.85340101  0.30194870  0.09793551
   0.34136507  0.80951512  0.09855519
   0.34221569  0.02505720  0.03075818
   0.18347412  0.32048854  0.24204530
   0.84868544  0.86561239  0.02883669
   0.51473245  0.85988790  0.16976986
   0.68406248  0.13931978  0.09872251
   0.85224271  0.52896216  0.16717820
   0.34826052  0.70073599  0.02297433
   0.01460779  0.35665453  0.02537953
   0.68281595  0.03209589  0.17112052
   0.68001930  0.13595983  0.24369676
   0.51575571  0.18565848  0.02818314
   0.85233480  0.53454304  0.02420950
   0.34758893  0.14039043  0.10047844
   0.69231445  0.80715913  0.09830730
   0.84899856  0.64228343  0.24112725
   0.35363471  0.47321785  0.09489550
   0.68127644  0.02587022  0.02861967
   0.18514094  0.86345625  0.02970118
   0.51638256  0.97575787  0.10001558
   0.84355951  0.19639710  0.17180426
   0.02116681  0.02542408  0.02909101
   0.68895207  0.36031863  0.16981073
   0.85591453  0.18764234  0.02693425
   0.17837599  0.64452368  0.09640931
   0.56134826  0.31537517  0.25167319
   0.17667772  0.52758628  0.02393096
   0.99518547  0.14188959  0.25280766
   0.53659064  0.53547454  0.00882442
   0.34235346  0.15282676  0.35137611
   0.50784022  0.64876383  0.09540285
   0.35688919  0.47873863  0.24487453
   0.35604882  0.35612617  0.16992368
   0.83886060  0.86618166  0.17223811
   0.52003181  0.86542088  0.03216955
   0.18784221  0.86175404  0.17624557
   0.00964468  0.80938376  0.24884207
   0.51960208  0.96965077  0.23860950
   0.68470490  0.47014680  0.09402694
   0.18749694  0.64340585  0.24391425
   0.18044138  0.52910314  0.16521986
   0.18877402  0.19379635  0.02819043
   0.68436050  0.34922993  0.02600386
   0.01505429  0.13731945  0.10149613
   0.16675764  0.15101650  0.42594959
 
 position of ions in cartesian coordinates  (Angst):
   0.13051343  6.30989397  6.88885318
   1.46392729 12.75070481  7.09925378
   0.12246928  0.38150652  5.06986970
   1.37285650  2.57610527  5.01876938
   1.40131236 12.82155188  2.95491475
   6.75904635  4.13214986  6.85450880
   1.41456684  4.06382733  2.79719471
   4.04351935  2.59747295  4.98234024
   5.38074728  9.24277985  0.71168616
   0.15415063  4.74691530  4.84267723
   5.29800475 10.58493225  7.00611338
   4.02729490  3.93666410  2.80194331
   2.70797264  0.44623849  4.98751941
   6.56476892 12.78025321  7.07753146
   6.60979121  8.41264296  2.76411398
   5.39292143  6.33871912  6.87221436
   5.35543513  9.13069727  4.88598175
   0.13274488 10.63633740  2.91101179
   0.14422466  9.22922650  0.79265557
   2.77871134  4.70327812  0.72573760
   6.60748229 12.80968785  2.87584144
   0.11460971  6.18628326  2.75108246
   4.04809700  8.46407478  6.92499710
   2.78971217 10.60152171  7.12612942
   4.06682782  6.92321764  4.87279633
   2.75325732  9.16268161  4.97152019
   0.12644517  9.10848618  4.91215550
   6.63817816  3.96691285  2.81647533
   2.65530757 10.63517070  2.83429638
   2.66192410  0.32919415  0.88455827
   1.42715307  4.21048391  6.96085254
   6.60149817 11.37216007  0.82929898
   4.00384542 11.29695337  4.88232149
   5.32097876  1.83034211  2.83910840
   6.62916837  6.94934868  4.80778936
   2.70894383  9.20606256  0.66070651
   0.11362668  4.68562188  0.72987655
   5.31128261  0.42166630  4.92116441
   5.28952885  1.78620012  7.00834603
   4.01180487  2.43912638  0.81050394
   6.62988466  7.02266865  0.69622822
   2.70371985  1.84440807  2.88960634
   5.38516665 10.60421836  2.82716771
   6.60393377  8.43813008  6.93445087
   2.75074698  6.21699638  2.72904956
   5.29930755  0.33987533  0.82305802
   1.44011845 11.34383335  0.85416062
   4.01668081 12.81921893  2.87629503
   6.56162608  2.58020720  4.94082775
   0.16464597  0.33401409  0.83661310
   5.35901243  4.73375985  4.88349682
   6.65772963  2.46518963  0.77458786
   1.38749730  8.46756188  2.77258419
   4.36644642  4.14330586  7.23773606
   1.37428731  6.93127284  0.68821769
   7.74104837  1.86410357  7.27036153
   4.17386928  7.03490645  0.25377674
   2.66299574  2.00779286 10.10503938
   3.95023419  8.52326778  2.74364011
   2.77606188  6.28952688  7.04221709
   2.76952508  4.67868048  4.88674510
   6.52507565 11.37963899  4.95330452
   4.04506648 11.36964407  0.92514697
   1.46113031 11.32147017  5.06855317
   0.07502109 10.63344491  7.15631743
   4.04172387 12.73898556  6.86204424
   5.32597581  6.17664996  2.70407093
   1.45844462  8.45287610  7.01460078
   1.40356294  6.95120087  4.75147043
   1.46837836  2.54603927  0.81071371
   5.32329693  4.58807977  0.74783136
   0.11709976  1.80406240  2.91887335
   1.29712403  1.98401022 12.24965863
 


--------------------------------------------------------------------------------------------------------


 k-point  1 :   0.1250 0.1250 0.0000  plane waves:   98110
 k-point  2 :   0.3750 0.1250 0.0000  plane waves:   98013
 k-point  3 :  -0.3750 0.1250 0.0000  plane waves:   98013
 k-point  4 :  -0.1250 0.1250 0.0000  plane waves:   98110
 k-point  5 :   0.1250 0.3750 0.0000  plane waves:   98128
 k-point  6 :   0.3750 0.3750 0.0000  plane waves:   98036
 k-point  7 :  -0.3750 0.3750 0.0000  plane waves:   98036
 k-point  8 :  -0.1250 0.3750 0.0000  plane waves:   98128

 maximum and minimum number of plane-waves per node :      4107     4059

 maximum number of plane-waves:     98128
 maximum index in each direction: 
   IXMAX=   15   IYMAX=   26   IZMAX=   57
   IXMIN=  -15   IYMIN=  -26   IZMIN=  -57

 WARNING: aliasing errors must be expected set NGX to  62 to avoid them
 WARNING: aliasing errors must be expected set NGY to 106 to avoid them
 WARNING: aliasing errors must be expected set NGZ to 230 to avoid them
 aliasing errors are usually negligible using standard VASP settings
 and one can safely disregard these warnings

 real space projection operators:
  total allocation   :      25662.27 KBytes
  max/ min on nodes  :       1198.22        916.31


 parallel 3D FFT for wavefunctions:
    minimum data exchange during FFTs selected (reduces bandwidth)
 parallel 3D FFT for charge:
    minimum data exchange during FFTs selected (reduces bandwidth)


 total amount of memory used by VASP on root node   167010. kBytes
========================================================================

   base      :      30000. kBytes
   nonlr-proj:       5876. kBytes
   fftplans  :       2917. kBytes
   grid      :       7869. kBytes
   one-center:        124. kBytes
   wavefun   :     120224. kBytes
 
     INWAV:  cpu time    0.0001: real time    0.0001
 Broyden mixing: mesh for mixing (old mesh)
   NGX = 31   NGY = 53   NGZ =115
  (NGX  = 96   NGY  =160   NGZ  =360)
  gives a total of 188945 points

 initial charge density was supplied:
 charge density of overlapping atoms calculated
 number of electron     693.0000000 magnetization      73.0000000
 keeping initial charge density in first step


--------------------------------------------------------------------------------------------------------


 Maximum index for non-local projection operator          288
 Maximum index for augmentation-charges          666 (set IRDMAX)


--------------------------------------------------------------------------------------------------------


 First call to EWALD:  gamma=   0.124
 Maximum number of real-space cells 5x 3x 2
 Maximum number of reciprocal cells 2x 3x 5

 FEWALD executed in parallel
    FEWALD:  cpu time    0.0024: real time    0.0024


----------------------------------------- Iteration    1(   1)  ---------------------------------------


    POTLOK:  cpu time    0.0988: real time    0.1059
    SETDIJ:  cpu time    0.0131: real time    0.0166
     EDDAV:  cpu time   30.2845: real time   30.3274
       DOS:  cpu time    0.0053: real time    0.0053
    --------------------------------------------
      LOOP:  cpu time   30.4037: real time   30.4786

 eigenvalue-minimisations  : 14592
 total energy-change (2. order) : 0.6344073E+04  (-0.3146497E+05)
 number of electron     693.0000000 magnetization      73.0000000
 augmentation part      693.0000000 magnetization      73.0000000

 Free energy of the ion-electron system (eV)
  ---------------------------------------------------
  alpha Z        PSCENC =      1801.67621936
  Ewald energy   TEWEN  =    434370.02205759
  -Hartree energ DENC   =   -500683.90096287
  -exchange      EXHF   =         0.00000000
  -V(xc)+E(xc)   XCENC  =      1402.31084720
  PAW double counting   =     56881.25429264   -59539.03621281
  entropy T*S    EENTRO =        -0.00188917
  eigenvalues    EBANDS =      2582.23921071
  atomic energy  EATOM  =     69529.50931638
  Solvation  Ediel_sol  =         0.00000000
  ---------------------------------------------------
  free energy    TOTEN  =      6344.07287902 eV

  energy without entropy =     6344.07476819  energy(sigma->0) =     6344.07335131


--------------------------------------------------------------------------------------------------------




----------------------------------------- Iteration    1(   2)  ---------------------------------------


     EDDAV:  cpu time   29.8218: real time   29.8227
       DOS:  cpu time    0.0050: real time    0.0050
    --------------------------------------------
      LOOP:  cpu time   29.8284: real time   29.8307

 eigenvalue-minimisations  : 14464
 total energy-change (2. order) :-0.6037781E+04  (-0.5739418E+04)
 number of electron     693.0000000 magnetization      73.0000000
 augmentation part      693.0000000 magnetization      73.0000000

 Free energy of the ion-electron system (eV)
  ---------------------------------------------------
  alpha Z        PSCENC =      1801.67621936
  Ewald energy   TEWEN  =    434370.02205759
  -Hartree energ DENC   =   -500683.90096287
  -exchange      EXHF   =         0.00000000
  -V(xc)+E(xc)   XCENC  =      1402.31084720
  PAW double counting   =     56881.25429264   -59539.03621281
  entropy T*S    EENTRO =        -0.00005726
  eigenvalues    EBANDS =     -3455.54366128
  atomic energy  EATOM  =     69529.50931638
  Solvation  Ediel_sol  =         0.00000000
  ---------------------------------------------------
  free energy    TOTEN  =       306.29183893 eV

  energy without entropy =      306.29189620  energy(sigma->0) =      306.29185325


--------------------------------------------------------------------------------------------------------




----------------------------------------- Iteration    1(   3)  ---------------------------------------


     EDDAV:  cpu time   33.5221: real time   33.5237
       DOS:  cpu time    0.0054: real time    0.0054
    --------------------------------------------
      LOOP:  cpu time   33.5287: real time   33.5321

 eigenvalue-minimisations  : 16816
 total energy-change (2. order) :-0.7586721E+03  (-0.6958185E+03)
 number of electron     693.0000000 magnetization      73.0000000
 augmentation part      693.0000000 magnetization      73.0000000

 Free energy of the ion-electron system (eV)
  ---------------------------------------------------
  alpha Z        PSCENC =      1801.67621936
  Ewald energy   TEWEN  =    434370.02205759
  -Hartree energ DENC   =   -500683.90096287
  -exchange      EXHF   =         0.00000000
  -V(xc)+E(xc)   XCENC  =      1402.31084720
  PAW double counting   =     56881.25429264   -59539.03621281
  entropy T*S    EENTRO =        -0.03209529
  eigenvalues    EBANDS =     -4214.18373834
  atomic energy  EATOM  =     69529.50931638
  Solvation  Ediel_sol  =         0.00000000
  ---------------------------------------------------
  free energy    TOTEN  =      -452.38027614 eV

  energy without entropy =     -452.34818086  energy(sigma->0) =     -452.37225232


--------------------------------------------------------------------------------------------------------




----------------------------------------- Iteration    1(   4)  ---------------------------------------


     EDDAV:  cpu time   40.9018: real time   40.9019
       DOS:  cpu time    0.0052: real time    0.0052
    --------------------------------------------
      LOOP:  cpu time   40.9084: real time   40.9103

 eigenvalue-minimisations  : 21640
 total energy-change (2. order) :-0.1036523E+03  (-0.9458534E+02)
 number of electron     693.0000000 magnetization      73.0000000
 augmentation part      693.0000000 magnetization      73.0000000

 Free energy of the ion-electron system (eV)
  ---------------------------------------------------
  alpha Z        PSCENC =      1801.67621936
  Ewald energy   TEWEN  =    434370.02205759
  -Hartree energ DENC   =   -500683.90096287
  -exchange      EXHF   =         0.00000000
  -V(xc)+E(xc)   XCENC  =      1402.31084720
  PAW double counting   =     56881.25429264   -59539.03621281
  entropy T*S    EENTRO =         0.00188855
  eigenvalues    EBANDS =     -4317.87000297
  atomic energy  EATOM  =     69529.50931638
  Solvation  Ediel_sol  =         0.00000000
  ---------------------------------------------------
  free energy    TOTEN  =      -556.03255694 eV

  energy without entropy =     -556.03444549  energy(sigma->0) =     -556.03302908


--------------------------------------------------------------------------------------------------------




----------------------------------------- Iteration    1(   5)  ---------------------------------------


     EDDAV:  cpu time   45.0759: real time   45.0783
       DOS:  cpu time    0.0055: real time    0.0055
    CHARGE:  cpu time    0.7556: real time    0.7577
    MIXING:  cpu time    0.0076: real time    0.0084
    --------------------------------------------
      LOOP:  cpu time   45.8460: real time   45.8527

 eigenvalue-minimisations  : 24280
 total energy-change (2. order) :-0.1085484E+02  (-0.1053384E+02)
 number of electron     693.0000027 magnetization      70.3377452
 augmentation part      308.7402224 magnetization      61.0206014

 Broyden mixing:
  rms(total) = 0.99363E+01    rms(broyden)= 0.99363E+01
  rms(prec ) = 0.10203E+02
  weight for this iteration     100.00

 Free energy of the ion-electron system (eV)
  ---------------------------------------------------
  alpha Z        PSCENC =      1801.67621936
  Ewald energy   TEWEN  =    434370.02205759
  -Hartree energ DENC   =   -500683.90096287
  -exchange      EXHF   =         0.00000000
  -V(xc)+E(xc)   XCENC  =      1402.31084720
  PAW double counting   =     56881.25429264   -59539.03621281
  entropy T*S    EENTRO =         0.00678212
  eigenvalues    EBANDS =     -4328.72973947
  atomic energy  EATOM  =     69529.50931638
  Solvation  Ediel_sol  =         0.00000000
  ---------------------------------------------------
  free energy    TOTEN  =      -566.88739987 eV

  energy without entropy =     -566.89418199  energy(sigma->0) =     -566.88909540


--------------------------------------------------------------------------------------------------------




----------------------------------------- Iteration    1(   6)  ---------------------------------------


    POTLOK:  cpu time    0.0868: real time    0.0868
    SETDIJ:  cpu time    0.0097: real time    0.0097
    EDDIAG:  cpu time    4.6012: real time    4.6041
  RMM-DIIS:  cpu time   14.1598: real time   14.1608
    ORTHCH:  cpu time    1.5943: real time    1.5951
       DOS:  cpu time    0.0050: real time    0.0050
    CHARGE:  cpu time    0.7734: real time    0.7734
    MIXING:  cpu time    0.0036: real time    0.0067
    --------------------------------------------
      LOOP:  cpu time   21.2360: real time   21.2459

 eigenvalue-minimisations  : 17718
 total energy-change (2. order) :-0.1252700E+03  (-0.1138630E+03)
 number of electron     693.0000017 magnetization      68.3709242
 augmentation part      386.1398015 magnetization      57.6150574

 Broyden mixing:
  rms(total) = 0.10058E+02    rms(broyden)= 0.10058E+02
  rms(prec ) = 0.10998E+02
  weight for this iteration     100.00

 eigenvalues of (default mixing * dielectric matrix)
  average eigenvalue GAMMA=   0.4753
  0.4753

 Free energy of the ion-electron system (eV)
  ---------------------------------------------------
  alpha Z        PSCENC =      1801.67621936
  Ewald energy   TEWEN  =    434370.02205759
  -Hartree energ DENC   =   -499606.04074052
  -exchange      EXHF   =         0.00000000
  -V(xc)+E(xc)   XCENC  =      1329.45344830
  PAW double counting   =     59116.54735792   -61502.78903281
  entropy T*S    EENTRO =        -0.02227507
  eigenvalues    EBANDS =     -5730.51378682
  atomic energy  EATOM  =     69529.50931638
  Solvation  Ediel_sol  =         0.00000000
  ---------------------------------------------------
  free energy    TOTEN  =      -692.15743568 eV

  energy without entropy =     -692.13516061  energy(sigma->0) =     -692.15186692


--------------------------------------------------------------------------------------------------------




----------------------------------------- Iteration    1(   7)  ---------------------------------------


    POTLOK:  cpu time    0.0836: real time    0.0836
    SETDIJ:  cpu time    0.0094: real time    0.0094
    EDDIAG:  cpu time    4.5999: real time    4.6012
  RMM-DIIS:  cpu time   12.0696: real time   12.0696
    ORTHCH:  cpu time    1.5904: real time    1.5904
       DOS:  cpu time    0.0055: real time    0.0055
    CHARGE:  cpu time    0.7553: real time    0.7553
    MIXING:  cpu time    0.0027: real time    0.0032
    --------------------------------------------
      LOOP:  cpu time   19.1183: real time   19.1224

 eigenvalue-minimisations  : 15092
 total energy-change (2. order) : 0.1621193E+03  (-0.5389596E+02)
 number of electron     693.0000027 magnetization      66.5907092
 augmentation part      320.5844431 magnetization      49.7566110

 Broyden mixing:
  rms(total) = 0.80249E+01    rms(broyden)= 0.80248E+01
  rms(prec ) = 0.93218E+01
  weight for this iteration     100.00

 eigenvalues of (default mixing * dielectric matrix)
  average eigenvalue GAMMA=   0.5878
  0.8874  0.2881

 Free energy of the ion-electron system (eV)
  ---------------------------------------------------
  alpha Z        PSCENC =      1801.67621936
  Ewald energy   TEWEN  =    434370.02205759
  -Hartree energ DENC   =   -500474.92937979
  -exchange      EXHF   =         0.00000000
  -V(xc)+E(xc)   XCENC  =      1379.49915373
  PAW double counting   =     61252.58057088   -63962.83372444
  entropy T*S    EENTRO =        -0.01048451
  eigenvalues    EBANDS =     -4425.55188163
  atomic energy  EATOM  =     69529.50931638
  Solvation  Ediel_sol  =         0.00000000
  ---------------------------------------------------
  free energy    TOTEN  =      -530.03815244 eV

  energy without entropy =     -530.02766792  energy(sigma->0) =     -530.03553131


--------------------------------------------------------------------------------------------------------




----------------------------------------- Iteration    1(   8)  ---------------------------------------


    POTLOK:  cpu time    0.0841: real time    0.0841
    SETDIJ:  cpu time    0.0094: real time    0.0094
    EDDIAG:  cpu time    4.6004: real time    4.6004
  RMM-DIIS:  cpu time   13.3937: real time   13.3937
    ORTHCH:  cpu time    1.5900: real time    1.5900
       DOS:  cpu time    0.0055: real time    0.0055
    CHARGE:  cpu time    0.7656: real time    0.7656
    MIXING:  cpu time    0.0027: real time    0.0027
    --------------------------------------------
      LOOP:  cpu time   20.4533: real time   20.4560

 eigenvalue-minimisations  : 16645
 total energy-change (2. order) :-0.1335159E+03  (-0.2347586E+02)
 number of electron     693.0000023 magnetization      65.0970358
 augmentation part      312.8848267 magnetization      45.8169297

 Broyden mixing:
  rms(total) = 0.16405E+02    rms(broyden)= 0.16405E+02
  rms(prec ) = 0.20033E+02
  weight for this iteration     100.00

 eigenvalues of (default mixing * dielectric matrix)
  average eigenvalue GAMMA=   0.5460
  1.2240  0.3090  0.1051

 Free energy of the ion-electron system (eV)
  ---------------------------------------------------
  alpha Z        PSCENC =      1801.67621936
  Ewald energy   TEWEN  =    434370.02205759
  -Hartree energ DENC   =   -500216.40339996
  -exchange      EXHF   =         0.00000000
  -V(xc)+E(xc)   XCENC  =      1380.17384404
  PAW double counting   =     62195.51399023   -64920.92999686
  entropy T*S    EENTRO =        -0.02170634
  eigenvalues    EBANDS =     -4803.09435375
  atomic energy  EATOM  =     69529.50931638
  Solvation  Ediel_sol  =         0.00000000
  ---------------------------------------------------
  free energy    TOTEN  =      -663.55402932 eV

  energy without entropy =     -663.53232298  energy(sigma->0) =     -663.54860274


--------------------------------------------------------------------------------------------------------




----------------------------------------- Iteration    1(   9)  ---------------------------------------


    POTLOK:  cpu time    0.0840: real time    0.0840
    SETDIJ:  cpu time    0.0095: real time    0.0095
    EDDIAG:  cpu time    4.5876: real time    4.5890
  RMM-DIIS:  cpu time   13.6574: real time   13.6575
    ORTHCH:  cpu time    1.5949: real time    1.5949
       DOS:  cpu time    0.0055: real time    0.0055
    CHARGE:  cpu time    0.7677: real time    0.7677
    MIXING:  cpu time    0.0029: real time    0.0037
    --------------------------------------------
      LOOP:  cpu time   20.7114: real time   20.7163

 eigenvalue-minimisations  : 17179
 total energy-change (2. order) : 0.3603746E+02  (-0.1688509E+02)
 number of electron     693.0000025 magnetization      64.0483665
 augmentation part      334.3878126 magnetization      45.4019920

 Broyden mixing:
  rms(total) = 0.13360E+02    rms(broyden)= 0.13360E+02
  rms(prec ) = 0.16438E+02
  weight for this iteration     100.00

 eigenvalues of (default mixing * dielectric matrix)
  average eigenvalue GAMMA=   0.4761
  1.3750  0.3205  0.1289  0.0801

 Free energy of the ion-electron system (eV)
  ---------------------------------------------------
  alpha Z        PSCENC =      1801.67621936
  Ewald energy   TEWEN  =    434370.02205759
  -Hartree energ DENC   =   -499959.46119980
  -exchange      EXHF   =         0.00000000
  -V(xc)+E(xc)   XCENC  =      1375.04217702
  PAW double counting   =     62844.54491394   -65558.22098786
  entropy T*S    EENTRO =        -0.01463557
  eigenvalues    EBANDS =     -5030.61442832
  atomic energy  EATOM  =     69529.50931638
  Solvation  Ediel_sol  =         0.00000000
  ---------------------------------------------------
  free energy    TOTEN  =      -627.51656728 eV

  energy without entropy =     -627.50193170  energy(sigma->0) =     -627.51290838


--------------------------------------------------------------------------------------------------------




----------------------------------------- Iteration    1(  10)  ---------------------------------------


    POTLOK:  cpu time    0.0839: real time    0.0839
    SETDIJ:  cpu time    0.0119: real time    0.0119
    EDDIAG:  cpu time    4.6025: real time    4.6041
  RMM-DIIS:  cpu time   13.3917: real time   13.3917
    ORTHCH:  cpu time    1.5946: real time    1.5946
       DOS:  cpu time    0.0054: real time    0.0054
    CHARGE:  cpu time    0.7616: real time    0.7616
    MIXING:  cpu time    0.0031: real time    0.0031
    --------------------------------------------
      LOOP:  cpu time   20.4564: real time   20.4604

 eigenvalue-minimisations  : 16724
 total energy-change (2. order) : 0.9490878E+02  (-0.8761064E+01)
 number of electron     693.0000034 magnetization      63.0776155
 augmentation part      349.7290450 magnetization      44.0332711

 Broyden mixing:
  rms(total) = 0.86273E+01    rms(broyden)= 0.86272E+01
  rms(prec ) = 0.94695E+01
  weight for this iteration     100.00

 eigenvalues of (default mixing * dielectric matrix)
  average eigenvalue GAMMA=   0.4418
  1.5112  0.3504  0.1369  0.1369  0.0735

 Free energy of the ion-electron system (eV)
  ---------------------------------------------------
  alpha Z        PSCENC =      1801.67621936
  Ewald energy   TEWEN  =    434370.02205759
  -Hartree energ DENC   =   -499982.79078722
  -exchange      EXHF   =         0.00000000
  -V(xc)+E(xc)   XCENC  =      1372.81065697
  PAW double counting   =     63315.31470295   -66034.10089960
  entropy T*S    EENTRO =        -0.00340188
  eigenvalues    EBANDS =     -4905.04564691
  atomic energy  EATOM  =     69529.50931638
  Solvation  Ediel_sol  =         0.00000000
  ---------------------------------------------------
  free energy    TOTEN  =      -532.60778237 eV

  energy without entropy =     -532.60438049  energy(sigma->0) =     -532.60693190


--------------------------------------------------------------------------------------------------------




----------------------------------------- Iteration    1(  11)  ---------------------------------------


    POTLOK:  cpu time    0.0840: real time    0.0840
    SETDIJ:  cpu time    0.0096: real time    0.0096
    EDDIAG:  cpu time    4.5938: real time    4.5938
  RMM-DIIS:  cpu time   13.1447: real time   13.1447
    ORTHCH:  cpu time    1.5941: real time    1.5941
       DOS:  cpu time    0.0053: real time    0.0053
    CHARGE:  cpu time    0.7537: real time    0.7537
    MIXING:  cpu time    0.0032: real time    0.0032
    --------------------------------------------
      LOOP:  cpu time   20.1902: real time   20.1926

 eigenvalue-minimisations  : 16441
 total energy-change (2. order) : 0.4141727E+02  (-0.5526745E+01)
 number of electron     693.0000020 magnetization      62.1373562
 augmentation part      357.4067448 magnetization      43.1344991

 Broyden mixing:
  rms(total) = 0.48913E+01    rms(broyden)= 0.48912E+01
  rms(prec ) = 0.54649E+01
  weight for this iteration     100.00

 eigenvalues of (default mixing * dielectric matrix)
  average eigenvalue GAMMA=   0.4331
  1.6207  0.4297  0.1820  0.1820  0.1111  0.0728

 Free energy of the ion-electron system (eV)
  ---------------------------------------------------
  alpha Z        PSCENC =      1801.67621936
  Ewald energy   TEWEN  =    434370.02205759
  -Hartree energ DENC   =   -500110.42757488
  -exchange      EXHF   =         0.00000000
  -V(xc)+E(xc)   XCENC  =      1373.30415162
  PAW double counting   =     63799.49312393   -66538.14548332
  entropy T*S    EENTRO =         0.00120622
  eigenvalues    EBANDS =     -4716.62352957
  atomic energy  EATOM  =     69529.50931638
  Solvation  Ediel_sol  =         0.00000000
  ---------------------------------------------------
  free energy    TOTEN  =      -491.19051268 eV

  energy without entropy =     -491.19171890  energy(sigma->0) =     -491.19081424


--------------------------------------------------------------------------------------------------------




----------------------------------------- Iteration    1(  12)  ---------------------------------------


    POTLOK:  cpu time    0.0840: real time    0.0840
    SETDIJ:  cpu time    0.0095: real time    0.0095
    EDDIAG:  cpu time    4.5972: real time    4.5974
  RMM-DIIS:  cpu time   13.6605: real time   13.6605
    ORTHCH:  cpu time    1.5929: real time    1.5930
       DOS:  cpu time    0.0052: real time    0.0052
    CHARGE:  cpu time    0.7597: real time    0.7597
    MIXING:  cpu time    0.0033: real time    0.0033
    --------------------------------------------
      LOOP:  cpu time   20.7141: real time   20.7167

 eigenvalue-minimisations  : 17152
 total energy-change (2. order) : 0.1764073E+02  (-0.1905475E+01)
 number of electron     693.0000021 magnetization      60.5795588
 augmentation part      353.3062217 magnetization      41.8236654

 Broyden mixing:
  rms(total) = 0.40335E+01    rms(broyden)= 0.40335E+01
  rms(prec ) = 0.45605E+01
  weight for this iteration     100.00

 eigenvalues of (default mixing * dielectric matrix)
  average eigenvalue GAMMA=   0.4328
  1.7468  0.4924  0.2319  0.2319  0.1273  0.1273  0.0716

 Free energy of the ion-electron system (eV)
  ---------------------------------------------------
  alpha Z        PSCENC =      1801.67621936
  Ewald energy   TEWEN  =    434370.02205759
  -Hartree energ DENC   =   -500276.71392115
  -exchange      EXHF   =         0.00000000
  -V(xc)+E(xc)   XCENC  =      1375.05900602
  PAW double counting   =     64227.02936917   -66983.07546609
  entropy T*S    EENTRO =        -0.04598587
  eigenvalues    EBANDS =     -4517.01038298
  atomic energy  EATOM  =     69529.50931638
  Solvation  Ediel_sol  =         0.00000000
  ---------------------------------------------------
  free energy    TOTEN  =      -473.54978757 eV

  energy without entropy =     -473.50380170  energy(sigma->0) =     -473.53829111


--------------------------------------------------------------------------------------------------------




----------------------------------------- Iteration    1(  13)  ---------------------------------------


    POTLOK:  cpu time    0.0841: real time    0.0841
    SETDIJ:  cpu time    0.0094: real time    0.0094
    EDDIAG:  cpu time    4.5918: real time    4.5919
  RMM-DIIS:  cpu time   13.0643: real time   13.0643
    ORTHCH:  cpu time    1.5937: real time    1.5937
       DOS:  cpu time    0.0049: real time    0.0049
    CHARGE:  cpu time    0.7563: real time    0.7563
    MIXING:  cpu time    0.0035: real time    0.0035
    --------------------------------------------
      LOOP:  cpu time   20.1100: real time   20.1126

 eigenvalue-minimisations  : 16419
 total energy-change (2. order) : 0.7282863E+01  (-0.1141564E+01)
 number of electron     693.0000035 magnetization      58.5759220
 augmentation part      354.3771698 magnetization      38.8816249

 Broyden mixing:
  rms(total) = 0.33898E+01    rms(broyden)= 0.33898E+01
  rms(prec ) = 0.39176E+01
  weight for this iteration     100.00

 eigenvalues of (default mixing * dielectric matrix)
  average eigenvalue GAMMA=   0.4315
  1.8334  0.5460  0.2961  0.2961  0.1422  0.1422  0.1248  0.0712

 Free energy of the ion-electron system (eV)
  ---------------------------------------------------
  alpha Z        PSCENC =      1801.67621936
  Ewald energy   TEWEN  =    434370.02205759
  -Hartree energ DENC   =   -500246.96872782
  -exchange      EXHF   =         0.00000000
  -V(xc)+E(xc)   XCENC  =      1378.60028489
  PAW double counting   =     64841.65495474   -67605.73238297
  entropy T*S    EENTRO =         0.00684233
  eigenvalues    EBANDS =     -4535.03548881
  atomic energy  EATOM  =     69529.50931638
  Solvation  Ediel_sol  =         0.00000000
  ---------------------------------------------------
  free energy    TOTEN  =      -466.26692433 eV

  energy without entropy =     -466.27376666  energy(sigma->0) =     -466.26863491


--------------------------------------------------------------------------------------------------------




----------------------------------------- Iteration    1(  14)  ---------------------------------------


    POTLOK:  cpu time    0.0838: real time    0.0838
    SETDIJ:  cpu time    0.0096: real time    0.0096
    EDDIAG:  cpu time    4.5937: real time    4.5939
  RMM-DIIS:  cpu time   13.5580: real time   13.5581
    ORTHCH:  cpu time    1.5921: real time    1.5921
       DOS:  cpu time    0.0053: real time    0.0053
    CHARGE:  cpu time    0.7604: real time    0.7604
    MIXING:  cpu time    0.0037: real time    0.0037
    --------------------------------------------
      LOOP:  cpu time   20.6084: real time   20.6110

 eigenvalue-minimisations  : 16989
 total energy-change (2. order) : 0.1116473E+02  (-0.1138564E+01)
 number of electron     693.0000017 magnetization      56.9791605
 augmentation part      344.5884946 magnetization      36.0655865

 Broyden mixing:
  rms(total) = 0.27130E+01    rms(broyden)= 0.27129E+01
  rms(prec ) = 0.30753E+01
  weight for this iteration     100.00

 eigenvalues of (default mixing * dielectric matrix)
  average eigenvalue GAMMA=   0.4339
  1.8902  0.5336  0.5336  0.2805  0.1714  0.1714  0.1267  0.1267  0.0712

 Free energy of the ion-electron system (eV)
  ---------------------------------------------------
  alpha Z        PSCENC =      1801.67621936
  Ewald energy   TEWEN  =    434370.02205759
  -Hartree energ DENC   =   -500529.47214933
  -exchange      EXHF   =         0.00000000
  -V(xc)+E(xc)   XCENC  =      1383.93593058
  PAW double counting   =     65539.10008200   -68325.23445970
  entropy T*S    EENTRO =         0.00333034
  eigenvalues    EBANDS =     -4224.64251656
  atomic energy  EATOM  =     69529.50931638
  Solvation  Ediel_sol  =         0.00000000
  ---------------------------------------------------
  free energy    TOTEN  =      -455.10218936 eV

  energy without entropy =     -455.10551970  energy(sigma->0) =     -455.10302194


--------------------------------------------------------------------------------------------------------




----------------------------------------- Iteration    1(  15)  ---------------------------------------


    POTLOK:  cpu time    0.0839: real time    0.0839
    SETDIJ:  cpu time    0.0095: real time    0.0095
    EDDIAG:  cpu time    4.5835: real time    4.5838
  RMM-DIIS:  cpu time   13.3616: real time   13.3617
    ORTHCH:  cpu time    1.5911: real time    1.5911
       DOS:  cpu time    0.0050: real time    0.0050
    CHARGE:  cpu time    0.7585: real time    0.7585
    MIXING:  cpu time    0.0040: real time    0.0040
    --------------------------------------------
      LOOP:  cpu time   20.3991: real time   20.4027

 eigenvalue-minimisations  : 16692
 total energy-change (2. order) : 0.3716336E+01  (-0.8007250E+00)
[...]
  Direction    XX          YY          ZZ          XY          YZ          ZX
  --------------------------------------------------------------------------------------
  Alpha Z  1801.67622  1801.67622  1801.67622
  Ewald  472835.07375472804.14336************  -178.31721   -18.70934  -140.36785
  Hartree488905.21919488814.61584************  -235.44589     7.16214   -79.04074
  E(xc)   -3636.05919 -3638.70879 -3642.77898     1.57287    -0.31028     0.23540
  Local  ************************982537.14922   421.14546     9.82862   213.44691
  n-local -1928.06357 -1922.12094 -1932.71983     8.47547    -0.13910    -1.94354
  augment  2903.34685  2903.79559  2931.30892    -4.80052     0.61863     0.11483
  Kinetic  6754.45771  6772.47922  6785.72816   -12.85872     1.23657     9.35507
  Fock        0.00000     0.00000     0.00000     0.00000     0.00000     0.00000
  -------------------------------------------------------------------------------------
  Total     -34.33186    -7.45019   -14.98019    -0.22853    -0.31277     1.80007
  in kB     -18.71660    -4.06160    -8.16671    -0.12459    -0.17051     0.98134
  external pressure =      -10.31 kB  Pullay stress =        0.00 kB


 VOLUME and BASIS-vectors are now :
 -----------------------------------------------------------------------------
  energy-cutoff  :      600.00
  volume of cell :     2938.87
      direct lattice vectors                 reciprocal lattice vectors
     7.778498173  0.000000000  0.000000000     0.128559521  0.000000000  0.000000000
     0.000000000 13.137704849  0.000000000     0.000000000  0.076116796  0.000000000
     0.000000000  0.000000000 28.758470535     0.000000000  0.000000000  0.034772364

  length of vectors
     7.778498173 13.137704849 28.758470535     0.128559521  0.076116796  0.034772364


 FORCES acting on ions
    electron-ion (+dipol)            ewald-force                    non-local-force                 convergence-correction
 -----------------------------------------------------------------------------------------------
   -.207E+03 -.155E+03 -.300E+04   0.207E+03 0.156E+03 0.300E+04   -.160E-01 -.367E+00 -.751E+00   -.248E-01 -.735E-01 -.155E+00
   -.954E+02 0.532E+02 -.305E+04   0.958E+02 -.530E+02 0.305E+04   -.402E+00 0.498E+00 -.814E+00   0.310E-01 0.301E-01 0.339E-01
   -.706E+02 0.116E+03 -.115E+04   0.715E+02 -.115E+03 0.115E+04   -.832E+00 -.137E+01 -.335E+00   0.905E-02 0.114E+00 -.101E+00
   -.140E+03 0.579E+01 -.117E+04   0.139E+03 -.672E+01 0.117E+04   0.507E+00 0.361E+00 -.858E+00   -.388E-01 0.247E+00 -.390E-01
   0.329E+02 -.447E+02 0.832E+03   -.325E+02 0.439E+02 -.833E+03   -.466E+00 0.736E+00 0.453E+00   0.414E-01 0.293E-01 -.120E+00
   -.545E+02 -.742E+02 -.296E+04   0.556E+02 0.750E+02 0.296E+04   -.117E+01 -.104E+01 0.744E-01   0.857E-01 0.169E+00 -.132E+00
   -.424E+02 0.858E+02 0.105E+04   0.422E+02 -.859E+02 -.105E+04   0.174E+00 -.338E-01 0.180E+00   0.560E-01 0.118E+00 0.713E-01
   0.197E+03 -.227E+02 -.119E+04   -.196E+03 0.211E+02 0.119E+04   -.371E+00 0.140E+01 -.365E+00   0.114E-01 0.225E+00 -.117E+00
   0.224E+02 -.923E+02 0.323E+04   -.216E+02 0.930E+02 -.323E+04   -.826E+00 -.582E+00 0.114E+00   0.274E-01 -.604E-01 0.270E-01
   -.166E+03 -.771E+02 -.924E+03   0.166E+03 0.766E+02 0.924E+03   0.306E+00 0.359E+00 0.435E+00   -.326E-01 0.113E+00 0.475E-01
   -.706E+02 -.476E+02 -.310E+04   0.705E+02 0.473E+02 0.310E+04   -.589E-02 0.577E+00 -.660E+00   -.223E-02 -.118E+00 -.632E-02
   0.144E+02 -.116E+03 0.107E+04   -.143E+02 0.116E+03 -.107E+04   -.578E-01 0.393E+00 0.320E-01   0.447E-02 0.116E+00 0.134E-01
   0.332E+02 -.326E+01 -.127E+04   -.335E+02 0.426E+01 0.127E+04   0.359E+00 -.109E+01 0.865E+00   -.394E-02 0.862E-01 -.984E-01
   0.120E+02 0.207E+03 -.307E+04   -.126E+02 -.207E+03 0.307E+04   0.609E+00 0.278E-01 -.125E+01   -.434E-02 0.433E-01 0.296E-01
   0.864E+01 0.676E+02 0.103E+04   -.838E+01 -.673E+02 -.103E+04   -.218E+00 -.881E-01 -.168E+00   -.313E-01 -.109E+00 -.181E-01
   0.866E+02 -.843E+02 -.302E+04   -.866E+02 0.854E+02 0.302E+04   -.114E+00 -.119E+01 -.198E+00   0.106E+00 -.491E-01 -.151E+00
   -.437E+02 -.527E+02 -.107E+04   0.437E+02 0.523E+02 0.107E+04   -.284E-01 0.578E+00 0.642E-01   0.582E-01 -.216E+00 -.131E+00
   -.112E+02 -.694E+02 0.781E+03   0.112E+02 0.695E+02 -.781E+03   0.143E-01 -.181E-01 0.465E+00   -.419E-01 -.135E+00 -.996E-01
   0.122E+02 -.531E+02 0.317E+04   -.121E+02 0.537E+02 -.317E+04   -.233E-01 -.524E+00 -.497E+00   -.627E-01 -.784E-01 -.674E-02
   -.455E+02 0.131E+03 0.316E+04   0.458E+02 -.130E+03 -.316E+04   -.329E+00 -.947E+00 0.207E+01   0.577E-01 0.681E-01 0.724E-01
   -.612E+02 -.330E+02 0.929E+03   0.608E+02 0.328E+02 -.929E+03   0.506E+00 0.172E+00 0.985E+00   -.441E-01 0.584E-02 -.131E+00
   0.271E+02 0.424E+02 0.103E+04   -.278E+02 -.427E+02 -.103E+04   0.694E+00 0.265E+00 -.258E+00   -.256E-01 0.229E-01 0.105E+00
   0.144E+03 0.678E+02 -.310E+04   -.143E+03 -.677E+02 0.310E+04   -.229E-01 -.566E-01 -.442E+00   -.481E-02 -.160E+00 -.915E-01
   0.129E+03 0.151E+02 -.316E+04   -.130E+03 -.153E+02 0.316E+04   0.743E+00 0.315E+00 -.704E+00   -.185E-01 -.965E-01 0.415E-02
   0.176E+03 0.107E+03 -.102E+04   -.176E+03 -.106E+03 0.102E+04   -.227E+00 -.489E+00 -.741E-01   0.267E-01 -.107E+00 -.955E-01
   0.166E+03 0.479E+02 -.123E+04   -.165E+03 -.480E+02 0.123E+04   -.609E+00 0.202E+00 0.405E+00   -.343E-01 -.181E+00 -.104E+00
   -.115E+03 -.871E+02 -.122E+04   0.114E+03 0.881E+02 0.122E+04   0.123E+01 -.701E+00 0.822E+00   -.254E-01 -.254E+00 -.503E-01
   0.183E+02 -.156E+02 0.115E+04   -.182E+02 0.156E+02 -.115E+04   -.124E+00 -.179E+00 -.124E+01   -.592E-01 0.870E-01 0.659E-01
   0.154E+02 -.868E+02 0.955E+03   -.168E+02 0.884E+02 -.955E+03   0.135E+01 -.139E+01 -.777E+00   0.573E-01 -.994E-01 -.944E-01
   0.674E+01 -.529E+02 0.314E+04   -.652E+01 0.529E+02 -.314E+04   -.249E+00 0.320E-01 0.692E+00   0.219E-01 -.300E-02 -.514E-02
   -.220E+03 -.359E+02 -.295E+04   0.220E+03 0.347E+02 0.296E+04   -.177E+00 0.524E+00 -.142E+00   -.822E-01 0.146E+00 -.107E+00
   0.301E+02 -.704E+02 0.317E+04   -.304E+02 0.707E+02 -.317E+04   0.320E+00 -.183E+00 -.947E+00   -.477E-01 -.936E-01 -.381E-01
   0.377E+02 -.516E+02 -.110E+04   -.379E+02 0.511E+02 0.110E+04   0.288E+00 0.596E+00 0.151E+01   -.887E-02 -.112E+00 -.134E+00
   -.434E+02 -.354E+02 0.107E+04   0.431E+02 0.348E+02 -.107E+04   0.331E+00 0.528E+00 -.184E-01   -.247E-01 0.150E+00 -.648E-01
   -.565E+02 0.221E+01 -.906E+03   0.565E+02 -.219E+01 0.906E+03   0.626E-01 0.820E-01 -.295E+00   0.331E-01 -.939E-01 -.502E-02
   -.271E+02 -.114E+03 0.327E+04   0.263E+02 0.114E+03 -.328E+04   0.815E+00 -.104E+00 0.161E+01   0.331E-01 -.640E-01 0.322E-02
   0.551E+02 0.142E+03 0.320E+04   -.550E+02 -.143E+03 -.320E+04   -.157E+00 0.811E+00 0.917E+00   -.197E-01 0.473E-01 0.156E-01
   0.290E+02 0.980E+02 -.109E+04   -.295E+02 -.966E+02 0.109E+04   0.337E+00 -.145E+01 0.131E+01   -.399E-02 0.101E+00 -.126E+00
   0.242E+03 0.967E+02 -.304E+04   -.243E+03 -.980E+02 0.304E+04   0.308E+00 0.136E+01 -.157E+01   0.742E-02 0.178E+00 -.771E-02
   0.365E+02 -.578E+02 0.319E+04   -.366E+02 0.575E+02 -.319E+04   0.447E-01 0.171E+00 -.738E+00   0.137E-01 0.949E-01 0.607E-01
   0.550E+02 0.150E+03 0.315E+04   -.549E+02 -.151E+03 -.315E+04   -.793E-01 0.764E+00 0.619E+00   -.453E-01 0.331E-01 0.282E-01
   0.111E+03 -.601E+02 0.996E+03   -.110E+03 0.598E+02 -.995E+03   -.546E+00 0.183E+00 -.620E+00   0.504E-01 0.125E+00 -.668E-01
   0.117E+01 -.838E+02 0.983E+03   -.268E-01 0.842E+02 -.982E+03   -.114E+01 -.308E+00 -.805E+00   -.152E-01 -.123E+00 -.138E+00
   -.152E+03 -.932E+02 -.311E+04   0.152E+03 0.938E+02 0.311E+04   -.274E+00 -.401E+00 -.492E+00   0.718E-01 -.214E+00 -.114E+00
   -.776E+02 0.863E+02 0.988E+03   0.778E+02 -.867E+02 -.989E+03   -.193E+00 0.444E+00 0.511E+00   0.485E-01 -.431E-01 0.362E-01
   0.200E+02 0.108E+01 0.320E+04   -.200E+02 -.422E+00 -.320E+04   0.973E-03 -.622E+00 -.979E+00   -.555E-02 -.677E-02 0.892E-03
   -.459E+02 -.793E+02 0.315E+04   0.461E+02 0.792E+02 -.314E+04   -.229E+00 0.786E-01 -.708E+00   0.184E-01 -.487E-01 -.443E-01
   0.287E+02 0.176E+02 0.994E+03   -.287E+02 -.164E+02 -.993E+03   0.279E-01 -.117E+01 -.113E+01   -.494E-04 0.159E-02 -.145E+00
   -.592E+02 0.439E+02 -.954E+03   0.592E+02 -.440E+02 0.955E+03   0.212E-01 -.272E+00 -.542E+00   0.256E-01 0.253E+00 -.595E-01
   -.311E+02 -.132E+03 0.312E+04   0.310E+02 0.132E+03 -.312E+04   0.267E-01 -.951E-01 0.426E-01   -.840E-02 0.896E-02 -.300E-01
   0.139E+03 -.765E+02 -.889E+03   -.139E+03 0.764E+02 0.889E+03   -.296E+00 0.326E-02 0.883E-01   0.621E-01 0.108E+00 -.646E-01
   -.623E+02 -.397E+02 0.317E+04   0.633E+02 0.387E+02 -.317E+04   -.970E+00 0.901E+00 -.650E+00   -.346E-01 0.658E-01 0.873E-02
   -.199E+01 0.470E+02 0.922E+03   0.105E+01 -.463E+02 -.923E+03   0.929E+00 -.514E+00 0.850E+00   0.976E-03 -.121E+00 0.226E-02
   0.318E+03 -.216E+02 -.410E+04   -.317E+03 0.222E+02 0.409E+04   -.145E+01 -.163E+01 0.529E+01   0.268E-01 0.143E+00 -.101E+00
   -.192E+02 0.905E+02 0.415E+04   0.193E+02 -.906E+02 -.415E+04   -.199E+00 0.653E-01 -.468E+01   0.214E-01 -.151E-03 0.396E-01
   -.243E+03 0.399E+02 -.413E+04   0.241E+03 -.403E+02 0.412E+04   0.225E+01 0.308E+00 0.529E+01   0.144E-01 0.272E+00 -.142E-01
   -.327E+02 0.186E+03 0.444E+04   0.333E+02 -.187E+03 -.444E+04   -.711E+00 0.309E+00 -.652E+01   0.396E-01 -.179E-01 0.568E-01
   -.108E+03 0.224E+02 -.407E+04   0.104E+03 -.223E+02 0.407E+04   0.245E+01 -.194E+00 -.814E+00   -.178E-01 0.694E-01 -.445E-02
   -.192E+02 0.147E+03 0.138E+04   0.193E+02 -.147E+03 -.138E+04   -.139E+00 0.177E+00 0.750E+00   0.381E-01 -.132E+00 -.499E-01
   0.628E+02 -.495E+02 -.182E+04   -.628E+02 0.494E+02 0.181E+04   -.668E-01 0.211E+00 0.338E+01   -.428E-01 -.405E-01 -.614E-01
   0.187E+02 -.596E+02 -.643E+03   -.188E+02 0.599E+02 0.644E+03   0.191E-01 -.257E+00 -.942E+00   -.173E-01 0.620E-01 -.432E-01
   -.824E+02 0.211E+02 -.707E+03   0.832E+02 -.213E+02 0.708E+03   -.751E+00 0.153E+00 -.260E+00   -.363E-02 -.730E-01 -.730E-01
   0.131E+02 -.344E+02 0.187E+04   -.129E+02 0.345E+02 -.187E+04   -.281E+00 -.478E-01 -.278E+01   0.198E-01 -.374E-01 -.740E-02
   0.581E+02 0.216E+02 -.776E+03   -.590E+02 -.215E+02 0.777E+03   0.861E+00 0.314E-01 -.473E+00   0.872E-02 -.716E-01 -.508E-01
   -.447E+02 0.493E+02 -.187E+04   0.446E+02 -.491E+02 0.187E+04   0.205E-01 0.518E-01 0.375E+01   0.104E-01 -.103E+00 -.132E-02
   0.622E+02 -.299E+02 -.179E+04   -.615E+02 0.293E+02 0.179E+04   -.108E+01 0.113E+01 0.270E+01   -.166E-01 0.927E-02 0.246E-01
   0.331E+02 0.549E+02 0.714E+03   -.333E+02 -.549E+02 -.715E+03   0.308E+00 -.207E-01 0.934E+00   -.155E-01 -.250E-02 0.252E-01
   0.693E+01 0.123E+02 -.186E+04   -.713E+01 -.122E+02 0.185E+04   0.265E+00 -.128E+00 0.253E+01   -.393E-01 -.103E+00 -.508E-01
   -.738E+02 0.189E+02 -.631E+03   0.740E+02 -.190E+02 0.631E+03   -.187E+00 0.192E+00 -.572E+00   -.327E-01 -.609E-01 -.866E-02
   0.236E+02 0.159E+02 0.188E+04   -.238E+02 -.156E+02 -.188E+04   0.172E+00 -.365E+00 -.341E+01   0.101E-01 0.353E-01 -.259E-02
   -.734E+01 0.370E+01 0.188E+04   0.688E+01 -.353E+01 -.188E+04   0.476E+00 -.147E+00 -.274E+01   -.235E-01 0.352E-01 0.334E-01
   -.425E+02 -.230E+02 0.610E+03   0.429E+02 0.231E+02 -.611E+03   -.241E+00 -.390E-01 0.649E+00   -.147E-01 0.691E-01 -.228E-01
   0.863E+02 0.428E+01 -.191E+04   -.871E+02 -.434E+01 0.191E+04   0.203E+01 0.928E-01 -.310E+01   -.139E-01 0.107E-01 -.124E-01
 -----------------------------------------------------------------------------------------------
   -.375E+01 0.271E+01 0.745E+01   0.455E-12 -.546E-12 -.978E-11   0.360E+01 -.293E+01 -.495E+01   0.160E+00 0.190E+00 -.259E+01
 
 
 POSITION                                       TOTAL-FORCE (eV/Angst)
 -----------------------------------------------------------------------------------
      0.13051      6.30989      6.88885         0.041526     -0.070684     -0.040859
      1.46393     12.75070      7.09925         0.018567      0.714306      0.406990
      0.12247      0.38151      5.06987         0.008953      0.071017      0.133704
      1.37286      2.57611      5.01877         0.172444     -0.322096      0.186890
      1.40131     12.82155      2.95491         0.001556      0.022694      0.027085
      6.75905      4.13215      6.85451        -0.026535     -0.079486      0.177333
      1.41457      4.06383      2.79719         0.042027     -0.016655     -0.047813
      4.04352      2.59747      4.98234        -0.049001     -0.024304      0.202072
      5.38075      9.24278      0.71169         0.003122     -0.010931      0.003125
      0.15415      4.74692      4.84268         0.056304     -0.010354      0.009212
      5.29800     10.58493      7.00611        -0.097608      0.160317     -0.068020
      4.02729      3.93666      2.80194         0.033008     -0.042290      0.031867
      2.70797      0.44624      4.98752         0.073978     -0.013746      0.211379
      6.56477     12.78025      7.07753         0.010470      0.091837      0.128973
      6.60979      8.41264      2.76411         0.010513      0.054008     -0.012043
      5.39292      6.33872      6.87221        -0.029879     -0.177955      0.033750
      5.35544      9.13070      4.88598        -0.011187      0.002260      0.007182
      0.13274     10.63634      2.91101         0.002667     -0.008938     -0.008844
      0.14422      9.22923      0.79266        -0.001210     -0.015632     -0.021366
      2.77871      4.70328      0.72574         0.044126     -0.003914      0.054961
      6.60748     12.80969      2.87584         0.015929      0.005936      0.010702
      0.11461      6.18628      2.75108        -0.025366      0.030781     -0.039963
      4.04810      8.46407      6.92500         0.067056     -0.060206     -0.006519
      2.78971     10.60152      7.12613         0.114460      0.036652     -0.047681
      4.06683      6.92322      4.87280         0.012786      0.000338     -0.032061
      2.75326      9.16268      4.97152         0.024131     -0.023975     -0.010285
      0.12645      9.10849      4.91216        -0.059041     -0.008331     -0.021485
      6.63818      3.96691      2.81648         0.005653     -0.038235     -0.048196
      2.65531     10.63517      2.83430         0.017715      0.021350      0.007529
      2.66192      0.32919      0.88456         0.000238      0.015114     -0.002670
      1.42715      4.21048      6.96085         0.042573     -0.527661      0.336602
      6.60150     11.37216      0.82930         0.006521      0.011967     -0.030126
      4.00385     11.29695      4.88232         0.048642      0.017395      0.099473
      5.32098      1.83034      2.83911        -0.031721      0.109573      0.042799
      6.62917      6.94935      4.80779         0.005213      0.005423     -0.014065
      2.70894      9.20606      0.66071         0.016474      0.006524     -0.023808
      0.11363      4.68562      0.72988        -0.012908     -0.014766     -0.014795
      5.31128      0.42167      4.92116        -0.088696     -0.001722      0.017743
      5.28953      1.78620      7.00835        -0.127755      0.218361      0.182365
      4.01180      2.43913      0.81050        -0.062513     -0.023839     -0.004137
      6.62988      7.02267      0.69623         0.022601     -0.022932      0.032519
      2.70372      1.84441      2.88961         0.010435     -0.002122      0.047321
      5.38517     10.60422      2.82717        -0.011178      0.036136     -0.019117
      6.60393      8.43813      6.93445         0.086394      0.043021      0.020476
      2.75075      6.21700      2.72905        -0.023589      0.015790     -0.028218
      5.29931      0.33988      0.82306        -0.003312      0.024118      0.003647
      1.44012     11.34383      0.85416        -0.006574      0.016822     -0.007442
      4.01668     12.81922      2.87630         0.027315     -0.019965      0.017262
      6.56163      2.58021      4.94083         0.078246     -0.117434      0.299576
      0.16465      0.33401      0.83661         0.002297      0.058751      0.041480
      5.35901      4.73376      4.88350        -0.030347      0.030311      0.041363
      6.65773      2.46519      0.77459         0.039326     -0.028143      0.072272
      1.38750      8.46756      2.77258        -0.009445      0.031297      0.036901
      4.36645      4.14331      7.23774        -0.860756     -0.948811     -0.020637
      1.37429      6.93127      0.68822         0.002550      0.005423     -0.017286
      7.74105      1.86410      7.27036         0.920979      0.240386     -0.762812
      4.17387      7.03491      0.25378        -0.020345     -0.039664     -0.019306
      2.66300      2.00779     10.10504        -1.252465     -0.068700     -0.083409
      3.95023      8.52327      2.74364         0.007272      0.023041     -0.012204
      2.77606      6.28953      7.04222        -0.036648      0.066237      0.158337
      2.76953      4.67868      4.88675        -0.068366      0.018539      0.030301
      6.52508     11.37964      4.95330         0.019541     -0.091846      0.032499
      4.04507     11.36964      0.92515        -0.013130      0.031834     -0.025740
      1.46113     11.32147      5.06855         0.009072      0.034170     -0.079687
      0.07502     10.63344      7.15632        -0.014686      0.151582      0.017259
      4.04172     12.73899      6.86204        -0.392447      0.462176      0.051818
      5.32598      6.17665      2.70407         0.013943     -0.004903     -0.048934
      1.45844      8.45288      7.01460         0.021541     -0.157581     -0.027361
      1.40356      6.95120      4.75147        -0.008934     -0.021432     -0.001041
      1.46838      2.54604      0.81071        -0.035843     -0.059747      0.088733
      5.32330      4.58808      0.74783        -0.004963      0.056068     -0.061487
      0.11710      1.80406      2.91887         0.058191      0.090238      0.192508
      1.29712      1.98401     12.24966         1.200092      0.047208     -1.786592
 -----------------------------------------------------------------------------------
    total drift:                                0.012214     -0.033971     -0.087841


--------------------------------------------------------------------------------------------------------



  FREE ENERGIE OF THE ION-ELECTRON SYSTEM (eV)
  ---------------------------------------------------
  free  energy   TOTEN  =      -498.69525622 eV

  energy  without entropy=     -498.69058837  energy(sigma->0) =     -498.69408926
 


--------------------------------------------------------------------------------------------------------


    POTLOK:  cpu time    0.0974: real time    0.0985


--------------------------------------------------------------------------------------------------------


     LOOP+:  cpu time 1326.4338: real time 1326.7837
    4ORBIT:  cpu time    0.0000: real time    0.0000

 total amount of memory used by VASP on root node   167010. kBytes
========================================================================

   base      :      30000. kBytes
   nonlr-proj:       5876. kBytes
   fftplans  :       2917. kBytes
   grid      :       7869. kBytes
   one-center:        124. kBytes
   wavefun   :     120224. kBytes
 
  
  
 General timing and accounting informations for this job:
 ========================================================
  
                  Total CPU time used (sec):     1366.905
                            User time (sec):     1363.726
                          System time (sec):        3.179
                         Elapsed time (sec):     1367.428
  
                   Maximum memory used (kb):      249192.
                   Average memory used (kb):           0.
  
                          Minor page faults:        80512
                          Major page faults:            0
                 Voluntary context switches:        12155
