 vasp.5.4.1 05Feb16 (build Mar 19 2020 08:54:17) complex                        
  
 executed on           IFC91_ompi date 2022.03.14  17:55:22
 running on   96 total cores
 distrk:  each k-point on   96 cores,    1 groups
 distr:  one band on NCORES_PER_BAND=  24 cores,    4 groups


--------------------------------------------------------------------------------------------------------


 INCAR:
 POTCAR:    PAW_PBE W 08Apr2002                   
 POTCAR:    PAW_PBE Cl 06Sep2000                  

 ----------------------------------------------------------------------------- 
|                                                                             |
|           W    W    AA    RRRRR   N    N  II  N    N   GGGG   !!!           |
|           W    W   A  A   R    R  NN   N  II  NN   N  G    G  !!!           |
|           W    W  A    A  R    R  N N  N  II  N N  N  G       !!!           |
|           W WW W  AAAAAA  RRRRR   N  N N  II  N  N N  G  GGG   !            |
|           WW  WW  A    A  R   R   N   NN  II  N   NN  G    G                |
|           W    W  A    A  R    R  N    N  II  N    N   GGGG   !!!           |
|                                                                             |
|      For optimal performance we recommend to set                            |
|        NCORE= 4 - approx SQRT( number of cores)                             |
|      NCORE specifies how many cores store one orbital (NPAR=cpu/NCORE).     |
|      This setting can  greatly improve the performance of VASP for DFT.     |
|      The default, NPAR=number of cores might be grossly inefficient         |
|      on modern multi-core architectures or massively parallel machines.     |
|      Do your own testing !!!!                                               |
|      Unfortunately you need to use the default for GW and RPA calculations. |
|      (for HF NCORE is supported but not extensively tested yet)             |
|                                                                             |
 ----------------------------------------------------------------------------- 

 POTCAR:    PAW_PBE W 08Apr2002                   
   VRHFIN =W : 6s5d                                                             
   LEXCH  = PE                                                                  
   EATOM  =   204.6103 eV,   15.0384 Ry                                         
                                                                                
   TITEL  = PAW_PBE W 08Apr2002                                                 
   LULTRA =        F    use ultrasoft PP ?                                      
   IUNSCR =        1    unscreen: 0-lin 1-nonlin 2-no                           
   RPACOR =    2.330    partial core radius                                     
   POMASS =  183.850; ZVAL   =    6.000    mass and valenz                      
   RCORE  =    2.750    outmost cutoff radius                                   
   RWIGS  =    2.750; RWIGS  =    1.455    wigner-seitz radius (au A)           
   ENMAX  =  223.057; ENMIN  =  167.293 eV                                      
   RCLOC  =    2.147    cutoff for local pot                                    
   LCOR   =        T    correct aug charges                                     
   LPAW   =        T    paw PP                                                  
   EAUG   =  373.438                                                            
   DEXC   =    0.000                                                            
   RMAX   =    2.801    core radius for proj-oper                               
   RAUG   =    1.300    factor for augmentation sphere                          
   RDEP   =    2.886    radius for radial grids                                 
   RDEPT  =    2.230    core radius for aug-charge                              
                                                                                
   Atomic configuration                                                         
   16 entries                                                                   
     n  l   j            E        occ.                                          
     1  0  0.50    -69465.5836   2.0000                                         
     2  0  0.50    -11986.2642   2.0000                                         
     2  1  1.50    -10479.8616   6.0000                                         
     3  0  0.50     -2759.0758   2.0000                                         
     3  1  1.50     -2313.1857   6.0000                                         
     3  2  2.50     -1801.1185  10.0000                                         
     4  0  0.50      -567.6791   2.0000                                         
     4  1  1.50      -421.4694   6.0000                                         
     4  2  2.50      -236.3473  10.0000                                         
     4  3  3.50       -31.2666  14.0000                                         
     5  0  0.50       -77.1085   2.0000                                         
     5  1  1.50       -41.3856   6.0000                                         
     5  2  2.50        -3.3185   5.0000                                         
     6  0  0.50        -5.1438   1.0000                                         
     6  1  0.50        -3.8096   0.0000                                         
     5  3  2.50        -1.3606   0.0000                                         
   Description                                                                  
     l       E           TYP  RCUT    TYP  RCUT                                 
     2     -3.3185288     23  2.500                                             
     2     -1.5965414     23  2.500                                             
     0     -5.1438054     23  2.500                                             
     0      4.9117504     23  2.500                                             
     1      2.7211652     23  2.750                                             
     1     27.2116520     23  2.750                                             
  local pseudopotential read in
  partial core-charges read in
  partial kinetic energy density read in
  atomic valenz-charges read in
  non local Contribution for L=           2  read in
    real space projection operators read in
  non local Contribution for L=           2  read in
    real space projection operators read in
  non local Contribution for L=           0  read in
    real space projection operators read in
  non local Contribution for L=           0  read in
    real space projection operators read in
  non local Contribution for L=           1  read in
    real space projection operators read in
  non local Contribution for L=           1  read in
    real space projection operators read in
    PAW grid and wavefunctions read in
 
   number of l-projection  operators is LMAX  =           6
   number of lm-projection operators is LMMAX =          18
 
 POTCAR:    PAW_PBE Cl 06Sep2000                  
   VRHFIN =Cl: s2p5                                                             
   LEXCH  = PE                                                                  
   EATOM  =   409.7259 eV,   30.1140 Ry                                         
                                                                                
   TITEL  = PAW_PBE Cl 06Sep2000                                                
   LULTRA =        F    use ultrasoft PP ?                                      
   IUNSCR =        1    unscreen: 0-lin 1-nonlin 2-no                           
   RPACOR =    1.500    partial core radius                                     
   POMASS =   35.453; ZVAL   =    7.000    mass and valenz                      
   RCORE  =    1.900    outmost cutoff radius                                   
   RWIGS  =    2.100; RWIGS  =    1.111    wigner-seitz radius (au A)           
   ENMAX  =  262.472; ENMIN  =  196.854 eV                                      
   ICORE  =        2    local potential                                         
   LCOR   =        T    correct aug charges                                     
   LPAW   =        T    paw PP                                                  
   EAUG   =  356.192                                                            
   DEXC   =    0.000                                                            
   RMAX   =    1.945    core radius for proj-oper                               
   RAUG   =    1.300    factor for augmentation sphere                          
   RDEP   =    2.020    radius for radial grids                                 
   RDEPT  =    1.678    core radius for aug-charge                              
                                                                                
   Atomic configuration                                                         
    6 entries                                                                   
     n  l   j            E        occ.                                          
     1  0  0.50     -2751.1850   2.0000                                         
     2  0  0.50      -252.6861   2.0000                                         
     2  1  1.50      -191.6157   6.0000                                         
     3  0  0.50       -20.6916   2.0000                                         
     3  1  0.50        -8.5949   5.0000                                         
     3  2  1.50        -8.1635   0.0000                                         
   Description                                                                  
     l       E           TYP  RCUT    TYP  RCUT                                 
     0    -20.6915656     23  1.900                                             
     0    -22.0521482     23  1.900                                             
     1     -8.5948577     23  1.900                                             
     1     -5.3847331     23  1.900                                             
     2     -8.1634956     23  1.900                                             
  local pseudopotential read in
  partial core-charges read in
  partial kinetic energy density read in
  atomic valenz-charges read in
  non local Contribution for L=           0  read in
    real space projection operators read in
  non local Contribution for L=           0  read in
    real space projection operators read in
  non local Contribution for L=           1  read in
    real space projection operators read in
  non local Contribution for L=           1  read in
    real space projection operators read in
    PAW grid and wavefunctions read in
 
   number of l-projection  operators is LMAX  =           4
   number of lm-projection operators is LMMAX =           8
 

 ----------------------------------------------------------------------------- 
|                                                                             |
|  ADVICE TO THIS USER RUNNING 'VASP/VAMP'   (HEAR YOUR MASTER'S VOICE ...):  |
|                                                                             |
|      You have a (more or less) 'small supercell' and for smaller cells      |
|      it is recommended  to use the reciprocal-space projection scheme!      |
|      The real space optimization is not  efficient for small cells and it   |
|      is also less accurate ...                                              |
|      Therefore set LREAL=.FALSE. in the  INCAR file                         |
|                                                                             |
 ----------------------------------------------------------------------------- 

 Optimization of the real space projectors (new method)

 maximal supplied QI-value         = 13.61
 optimisation between [QCUT,QGAM] = [ 10.75, 21.63] = [ 32.35,131.06] Ry 
 Optimized for a Real-space Cutoff    1.65 Angstroem

   l    n(q)    QCUT    max X(q) W(low)/X(q) W(high)/X(q)  e(spline) 
   2     10    10.749   130.855    0.24E-03    0.22E-03    0.39E-06
   2     10    10.749   114.007    0.24E-03    0.22E-03    0.39E-06
   0     11    10.749    84.709    0.32E-04    0.10E-04    0.34E-06
   0     11    10.749    49.163    0.26E-04    0.89E-05    0.31E-06
   1     10    10.749    15.765    0.14E-03    0.94E-05    0.22E-06
   1     10    10.749    10.638    0.10E-03    0.52E-05    0.16E-06
 Optimization of the real space projectors (new method)

 maximal supplied QI-value         = 19.84
 optimisation between [QCUT,QGAM] = [ 10.71, 21.63] = [ 32.15,130.99] Ry 
 Optimized for a Real-space Cutoff    1.19 Angstroem

   l    n(q)    QCUT    max X(q) W(low)/X(q) W(high)/X(q)  e(spline) 
   0      8    10.715   168.010    0.38E-03    0.52E-04    0.59E-07
   0      8    10.715   164.674    0.37E-03    0.50E-04    0.57E-07
   1      7    10.715    69.222    0.20E-03    0.59E-03    0.70E-07
   1      7    10.715    56.786    0.19E-03    0.58E-03    0.68E-07
  PAW_PBE W 08Apr2002                   :
 energy of atom  1       EATOM= -204.6103
 kinetic energy error for atom=    0.0022 (will be added to EATOM!!)
  PAW_PBE Cl 06Sep2000                  :
 energy of atom  2       EATOM= -409.7259
 kinetic energy error for atom=    0.0057 (will be added to EATOM!!)
 
 
 POSCAR: W Cell                                  
  positions in direct lattice
  No initial velocities read in
 exchange correlation table for  LEXCH =        8
   RHO(1)=    0.500       N(1)  =     2000
   RHO(2)=  100.500       N(2)  =     4000
 


--------------------------------------------------------------------------------------------------------


 ion  position               nearest neighbor table
   1  0.500  0.550  0.550-   2 2.03   3 2.03   5 2.12   6 2.12   4 2.49
   2  0.500  0.454  0.646-   1 2.03
   3  0.500  0.646  0.454-   1 2.03
   4  0.650  0.500  0.500-   6 2.49   1 2.49
   5  0.500  0.650  0.650-   1 2.12
   6  0.500  0.450  0.450-   1 2.12   4 2.49
 
  LATTYP: Found a simple cubic cell.
 ALAT       =    15.0000000000
  
  Lattice vectors:
  
 A1 = (  15.0000000000,   0.0000000000,   0.0000000000)
 A2 = (   0.0000000000,  15.0000000000,   0.0000000000)
 A3 = (   0.0000000000,   0.0000000000,  15.0000000000)


Analysis of symmetry for initial positions (statically):
=====================================================================
 Subroutine PRICEL returns:
 Original cell was already a primitive cell.
 

 Routine SETGRP: Setting up the symmetry group for a 
 simple cubic supercell.


 Subroutine GETGRP returns: Found  2 space group operations
 (whereof  2 operations were pure point group operations)
 out of a pool of 48 trial point group operations.


The static configuration has the point symmetry C_1h.


Analysis of symmetry for dynamics (positions and initial velocities):
=====================================================================
 Subroutine PRICEL returns:
 Original cell was already a primitive cell.
 

 Routine SETGRP: Setting up the symmetry group for a 
 simple cubic supercell.


 Subroutine GETGRP returns: Found  2 space group operations
 (whereof  2 operations were pure point group operations)
 out of a pool of 48 trial point group operations.


The dynamic configuration has the point symmetry C_1h.


Analysis of structural, dynamic, and magnetic symmetry:
=====================================================================
 Subroutine PRICEL returns:
 Original cell was already a primitive cell.
 

 Routine SETGRP: Setting up the symmetry group for a 
 simple cubic supercell.


 Subroutine GETGRP returns: Found  2 space group operations
 (whereof  2 operations were pure point group operations)
 out of a pool of 48 trial point group operations.


The magnetic configuration has the point symmetry C_1h.


 Subroutine INISYM returns: Found  2 space group operations
 (whereof  2 operations are pure point group operations),
 and found     1 'primitive' translations

 
 
 KPOINTS: k-points                                

Automatic generation of k-mesh.
Space group operators:
 irot       det(A)        alpha          n_x          n_y          n_z        tau_x        tau_y        tau_z
    1     1.000000     0.000000     1.000000     0.000000     0.000000     0.000000     0.000000     0.000000
    2    -1.000000   180.000000     0.000000    -0.707107     0.707107     0.000000     0.000000     0.000000
 
 Subroutine IBZKPT returns following result:
 ===========================================
 
 Found      1 irreducible k-points:
 
 Following reciprocal coordinates:
            Coordinates               Weight
  0.000000  0.000000  0.000000      1.000000
 
 Following cartesian coordinates:
            Coordinates               Weight
  0.000000  0.000000  0.000000      1.000000
 


--------------------------------------------------------------------------------------------------------




 Dimension of arrays:
   k-points           NKPTS =      1   k-points in BZ     NKDIM =      1   number of bands    NBANDS=     28
   number of dos      NEDOS =    301   number of ions     NIONS =      6
   non local maximal  LDIM  =      6   non local SUM 2l+1 LMDIM =     18
   total plane-waves  NPLWV = 512000
   max r-space proj   IRMAX =   2898   max aug-charges    IRDMAX=   8858
   dimension x,y,z NGX =    80 NGY =   80 NGZ =   80
   dimension x,y,z NGXF=   160 NGYF=  160 NGZF=  160
   support grid    NGXF=   160 NGYF=  160 NGZF=  160
   ions per type =               1   5
 NGX,Y,Z   is equivalent  to a cutoff of   8.87,  8.87,  8.87 a.u.
 NGXF,Y,Z  is equivalent  to a cutoff of  17.73, 17.73, 17.73 a.u.


 I would recommend the setting:
   dimension x,y,z NGX =    78 NGY =   78 NGZ =   78
 SYSTEM =  clean (100) surface                     
 POSCAR =  W Cell                                  

 Startparameter for this run:
   NWRITE =      2    write-flag & timer
   PREC   = normal    normal or accurate (medium, high low for compatibility)
   ISTART =      0    job   : 0-new  1-cont  2-samecut
   ICHARG =      2    charge: 1-file 2-atom 10-const
   ISPIN  =      2    spin polarized calculation?
   LNONCOLLINEAR =      F non collinear calculations
   LSORBIT =      F    spin-orbit coupling
   INIWAV =      1    electr: 0-lowe 1-rand  2-diag
   LASPH  =      F    aspherical Exc in radial PAW
   METAGGA=      F    non-selfconsistent MetaGGA calc.

 Electronic Relaxation 1
   ENCUT  =  450.0 eV  33.07 Ry    5.75 a.u.  25.95 25.95 25.95*2*pi/ulx,y,z
   ENINI  =  450.0     initial cutoff
   ENAUG  =  373.4 eV  augmentation charge cutoff
   NELM   =     60;   NELMIN=  2; NELMDL= -5     # of ELM steps 
   EDIFF  = 0.1E-05   stopping-criterion for ELM
   LREAL  =      T    real-space projection
   NLSPLINE    = F    spline interpolate recip. space projectors
   LCOMPAT=      F    compatible to vasp.4.4
   GGA_COMPAT  = T    GGA compatible to vasp.4.4-vasp.4.6
   LMAXPAW     = -100 max onsite density
   LMAXMIX     =    2 max onsite mixed and CHGCAR
   VOSKOWN=      0    Vosko Wilk Nusair interpolation
   ROPT   =   -0.00050  -0.00050
 Ionic relaxation
   EDIFFG = -.1E-01   stopping-criterion for IOM
   NSW    =    250    number of steps for IOM
   NBLOCK =      1;   KBLOCK =    250    inner block; outer block 
   IBRION =      2    ionic relax: 0-MD 1-quasi-New 2-CG
   NFREE  =      1    steps in history (QN), initial steepest desc. (CG)
   ISIF   =      2    stress and relaxation
   IWAVPR =     11    prediction:  0-non 1-charg 2-wave 3-comb
   ISYM   =      2    0-nonsym 1-usesym 2-fastsym
   LCORR  =      T    Harris-Foulkes like correction to forces

   POTIM  = 0.1000    time-step for ionic-motion
   TEIN   =    0.0    initial temperature
   TEBEG  =    0.0;   TEEND  =   0.0 temperature during run
   SMASS  =  -3.00    Nose mass-parameter (am)
   estimated Nose-frequenzy (Omega)   =  0.10E-29 period in steps =****** mass=  -0.514E-26a.u.
   SCALEE = 1.0000    scale energy and forces
   NPACO  =    256;   APACO  = 16.0  distance and # of slots for P.C.
   PSTRESS=    0.0 pullay stress

  Mass of Ions in am
   POMASS = 183.85 35.45
  Ionic Valenz
   ZVAL   =   6.00  7.00
  Atomic Wigner-Seitz radii
   RWIGS  =  -1.00 -1.00
  virtual crystal weights 
   VCA    =   1.00  1.00
   NELECT =      41.0000    total number of electrons
   NUPDOWN=      -1.0000    fix difference up-down

 DOS related values:
   EMIN   =  10.00;   EMAX   =-10.00  energy-range for DOS
   EFERMI =   0.00
   ISMEAR =     2;   SIGMA  =   0.20  broadening in eV -4-tet -1-fermi 0-gaus

 Electronic relaxation 2 (details)
   IALGO  =     68    algorithm
   LDIAG  =      T    sub-space diagonalisation (order eigenvalues)
   LSUBROT=      F    optimize rotation matrix (better conditioning)
   TURBO    =      0    0=normal 1=particle mesh
   IRESTART =      0    0=no restart 2=restart with 2 vectors
   NREBOOT  =      0    no. of reboots
   NMIN     =      0    reboot dimension
   EREF     =   0.00    reference energy to select bands
   IMIX   =      4    mixing-type and parameters
     AMIX     =   0.40;   BMIX     =  1.00
     AMIX_MAG =   1.60;   BMIX_MAG =  1.00
     AMIN     =   0.10
     WC   =   100.;   INIMIX=   1;  MIXPRE=   1;  MAXMIX= -45

 Intra band minimization:
   WEIMIN = 0.0010     energy-eigenvalue tresh-hold
   EBREAK =  0.89E-08  absolut break condition
   DEPER  =   0.30     relativ break condition  

   TIME   =   0.40     timestep for ELM

  volume/ion in A,a.u.               =     562.50      3795.94
  Fermi-wavevector in a.u.,A,eV,Ry     =   0.376338  0.711176  1.926998  0.141630
  Thomas-Fermi vector in A             =   1.308106
 
 Write flags
   LWAVE  =      F    write WAVECAR
   LCHARG =      F    write CHGCAR
   LVTOT  =      F    write LOCPOT, total local potential
   LVHAR  =      F    write LOCPOT, Hartree potential only
   LELF   =      F    write electronic localiz. function (ELF)
   LORBIT =      0    0 simple, 1 ext, 2 COOP (PROOUT)


 Dipole corrections
   LMONO  =      F    monopole corrections only (constant potential shift)
   LDIPOL =      F    correct potential (dipole corrections)
   IDIPOL =      0    1-x, 2-y, 3-z, 4-all directions 
   EPSILON=  1.0000000 bulk dielectric constant

 Exchange correlation treatment:
   GGA     =    --    GGA type
   LEXCH   =     8    internal setting for exchange type
   VOSKOWN=      0    Vosko Wilk Nusair interpolation
   LHFCALC =     F    Hartree Fock is set to
   LHFONE  =     F    Hartree Fock one center treatment
   AEXX    =    0.0000 exact exchange contribution

 Linear response parameters
   LEPSILON=     F    determine dielectric tensor
   LRPA    =     F    only Hartree local field effects (RPA)
   LNABLA  =     F    use nabla operator in PAW spheres
   LVEL    =     F    velocity operator in full k-point grid
   LINTERFAST=   F  fast interpolation
   KINTER  =     0    interpolate to denser k-point grid
   CSHIFT  =0.1000    complex shift for real part using Kramers Kronig
   OMEGAMAX=  -1.0    maximum frequency
   DEG_THRESHOLD= 0.2000000E-02 threshold for treating states as degnerate
   RTIME   =    0.100 relaxation time in fs

 Orbital magnetization related:
   ORBITALMAG=     F  switch on orbital magnetization
   LCHIMAG   =     F  perturbation theory with respect to B field
   DQ        =  0.001000  dq finite difference perturbation B field



--------------------------------------------------------------------------------------------------------


 conjugate gradient relaxation of ions
 charge density and potential will be updated during run
 spin polarized calculation
 RMM-DIIS sequential band-by-band and
  variant of blocked Davidson during initial phase
 perform sub-space diagonalisation
    before iterative eigenvector-optimisation
 modified Broyden-mixing scheme, WC =      100.0
 initial mixing is a Kerker type mixing with AMIX =  0.4000 and BMIX =      1.0000
 Hartree-type preconditioning will be used
 using additional bands            7
 real space projection scheme for non local part
 use partial core corrections
 calculate Harris-corrections to forces 
   (improved forces if not selfconsistent)
 use gradient corrections 
 use of overlap-Matrix (Vanderbilt PP)
 Methfessel and Paxton  Order N= 2 SIGMA  =   0.20


--------------------------------------------------------------------------------------------------------


  energy-cutoff  :      450.00
  volume of cell :     3375.00
      direct lattice vectors                 reciprocal lattice vectors
    15.000000000  0.000000000  0.000000000     0.066666667  0.000000000  0.000000000
     0.000000000 15.000000000  0.000000000     0.000000000  0.066666667  0.000000000
     0.000000000  0.000000000 15.000000000     0.000000000  0.000000000  0.066666667

  length of vectors
    15.000000000 15.000000000 15.000000000     0.066666667  0.066666667  0.066666667


 
 k-points in units of 2pi/SCALE and weight: k-points                                
   0.00000000  0.00000000  0.00000000       1.000
 
 k-points in reciprocal lattice and weights: k-points                                
   0.00000000  0.00000000  0.00000000       1.000
 
 position of ions in fractional coordinates (direct lattice) 
   0.50000000  0.55002624  0.55002624
   0.50000000  0.45417254  0.64580122
   0.50000000  0.64580122  0.45417254
   0.65000000  0.50000000  0.50000000
   0.50000000  0.65000000  0.65000000
   0.50000000  0.45000000  0.45000000
 
 position of ions in cartesian coordinates  (Angst):
   7.50000000  8.25039359  8.25039359
   7.50000000  6.81258808  9.68701833
   7.50000000  9.68701833  6.81258808
   9.75000000  7.50000000  7.50000000
   7.50000000  9.75000000  9.75000000
   7.50000000  6.75000000  6.75000000
 


--------------------------------------------------------------------------------------------------------


 k-point  1 :   0.0000 0.0000 0.0000  plane waves:   72935

 maximum and minimum number of plane-waves per node :      3049     3028

 maximum number of plane-waves:     72935
 maximum index in each direction: 
   IXMAX=   25   IYMAX=   25   IZMAX=   25
   IXMIN=  -25   IYMIN=  -25   IZMIN=  -25

 WARNING: aliasing errors must be expected set NGX to 102 to avoid them
 WARNING: aliasing errors must be expected set NGY to 102 to avoid them
 WARNING: aliasing errors must be expected set NGZ to 102 to avoid them
 aliasing errors are usually negligible using standard VASP settings
 and one can safely disregard these warnings

 real space projection operators:
  total allocation   :        713.08 KBytes
  max/ min on nodes  :         64.14          6.06


 parallel 3D FFT for wavefunctions:
    minimum data exchange during FFTs selected (reduces bandwidth)
 parallel 3D FFT for charge:
    minimum data exchange during FFTs selected (reduces bandwidth)


 total amount of memory used by VASP on root node    39684. kBytes
========================================================================

   base      :      30000. kBytes
   nonlr-proj:        304. kBytes
   fftplans  :       2467. kBytes
   grid      :       6195. kBytes
   one-center:         31. kBytes
   wavefun   :        687. kBytes
 
     INWAV:  cpu time    0.0000: real time    0.0000
 Broyden mixing: mesh for mixing (old mesh)
   NGX = 51   NGY = 51   NGZ = 51
  (NGX  =160   NGY  =160   NGZ  =160)
  gives a total of 132651 points

 initial charge density was supplied:
 charge density of overlapping atoms calculated
 number of electron      41.0000000 magnetization       6.0000000
 keeping initial charge density in first step


--------------------------------------------------------------------------------------------------------


 Maximum index for non-local projection operator           69
 Maximum index for augmentation-charges          113 (set IRDMAX)


--------------------------------------------------------------------------------------------------------


 First call to EWALD:  gamma=   0.118
 Maximum number of real-space cells 3x 3x 3
 Maximum number of reciprocal cells 3x 3x 3

 FEWALD executed in parallel
    FEWALD:  cpu time    0.0018: real time    0.0019


----------------------------------------- Iteration    1(   1)  ---------------------------------------


    POTLOK:  cpu time    0.0831: real time    0.0883
    SETDIJ:  cpu time    0.0102: real time    0.0114
     EDDAV:  cpu time    0.1866: real time    0.2243
       DOS:  cpu time    0.0047: real time    0.0057
    --------------------------------------------
      LOOP:  cpu time    0.2891: real time    0.3398

 eigenvalue-minimisations  :   144
 total energy-change (2. order) : 0.3287456E+03  (-0.8605419E+03)
 number of electron      41.0000000 magnetization       6.0000000
 augmentation part       41.0000000 magnetization       6.0000000

 Free energy of the ion-electron system (eV)
  ---------------------------------------------------
  alpha Z        PSCENC =         3.30829492
  Ewald energy   TEWEN  =      1380.87360428
  -Hartree energ DENC   =     -3256.91386754
  -exchange      EXHF   =         0.00000000
  -V(xc)+E(xc)   XCENC  =        52.50967868
  PAW double counting   =      1867.73898953    -1809.15421057
  entropy T*S    EENTRO =        -0.01670786
  eigenvalues    EBANDS =      -162.80920098
  atomic energy  EATOM  =      2253.20900609
  Solvation  Ediel_sol  =         0.00000000
  ---------------------------------------------------
  free energy    TOTEN  =       328.74558656 eV

  energy without entropy =      328.76229442  energy(sigma->0) =      328.74976353


--------------------------------------------------------------------------------------------------------




----------------------------------------- Iteration    1(   2)  ---------------------------------------


     EDDAV:  cpu time    0.1477: real time    0.1477
       DOS:  cpu time    0.0002: real time    0.0002
    --------------------------------------------
      LOOP:  cpu time    0.1492: real time    0.1507

 eigenvalue-minimisations  :   192
 total energy-change (2. order) :-0.2112340E+03  (-0.2036440E+03)
 number of electron      41.0000000 magnetization       6.0000000
 augmentation part       41.0000000 magnetization       6.0000000

 Free energy of the ion-electron system (eV)
  ---------------------------------------------------
  alpha Z        PSCENC =         3.30829492
  Ewald energy   TEWEN  =      1380.87360428
  -Hartree energ DENC   =     -3256.91386754
  -exchange      EXHF   =         0.00000000
  -V(xc)+E(xc)   XCENC  =        52.50967868
  PAW double counting   =      1867.73898953    -1809.15421057
  entropy T*S    EENTRO =        -0.00549761
  eigenvalues    EBANDS =      -374.05437421
  atomic energy  EATOM  =      2253.20900609
  Solvation  Ediel_sol  =         0.00000000
  ---------------------------------------------------
  free energy    TOTEN  =       117.51162358 eV

  energy without entropy =      117.51712119  energy(sigma->0) =      117.51299798


--------------------------------------------------------------------------------------------------------




----------------------------------------- Iteration    1(   3)  ---------------------------------------


     EDDAV:  cpu time    0.1223: real time    0.1226
       DOS:  cpu time    0.0002: real time    0.0002
    --------------------------------------------
      LOOP:  cpu time    0.1237: real time    0.1255

 eigenvalue-minimisations  :   152
 total energy-change (2. order) :-0.1241592E+03  (-0.1236893E+03)
 number of electron      41.0000000 magnetization       6.0000000
 augmentation part       41.0000000 magnetization       6.0000000

 Free energy of the ion-electron system (eV)
  ---------------------------------------------------
  alpha Z        PSCENC =         3.30829492
  Ewald energy   TEWEN  =      1380.87360428
  -Hartree energ DENC   =     -3256.91386754
  -exchange      EXHF   =         0.00000000
  -V(xc)+E(xc)   XCENC  =        52.50967868
  PAW double counting   =      1867.73898953    -1809.15421057
  entropy T*S    EENTRO =         0.00250715
  eigenvalues    EBANDS =      -498.22154343
  atomic energy  EATOM  =      2253.20900609
  Solvation  Ediel_sol  =         0.00000000
  ---------------------------------------------------
  free energy    TOTEN  =        -6.64754089 eV

  energy without entropy =       -6.65004804  energy(sigma->0) =       -6.64816767


--------------------------------------------------------------------------------------------------------




----------------------------------------- Iteration    1(   4)  ---------------------------------------


     EDDAV:  cpu time    0.1272: real time    0.1272
       DOS:  cpu time    0.0002: real time    0.0002
    --------------------------------------------
      LOOP:  cpu time    0.1285: real time    0.1299

 eigenvalue-minimisations  :   160
 total energy-change (2. order) :-0.1717576E+02  (-0.1713560E+02)
 number of electron      41.0000000 magnetization       6.0000000
 augmentation part       41.0000000 magnetization       6.0000000

 Free energy of the ion-electron system (eV)
  ---------------------------------------------------
  alpha Z        PSCENC =         3.30829492
  Ewald energy   TEWEN  =      1380.87360428
  -Hartree energ DENC   =     -3256.91386754
  -exchange      EXHF   =         0.00000000
  -V(xc)+E(xc)   XCENC  =        52.50967868
  PAW double counting   =      1867.73898953    -1809.15421057
  entropy T*S    EENTRO =         0.00005120
  eigenvalues    EBANDS =      -515.39484550
  atomic energy  EATOM  =      2253.20900609
  Solvation  Ediel_sol  =         0.00000000
  ---------------------------------------------------
  free energy    TOTEN  =       -23.82329890 eV

  energy without entropy =      -23.82335010  energy(sigma->0) =      -23.82331170


--------------------------------------------------------------------------------------------------------




----------------------------------------- Iteration    1(   5)  ---------------------------------------


     EDDAV:  cpu time    0.1165: real time    0.1165
       DOS:  cpu time    0.0002: real time    0.0002
    CHARGE:  cpu time    0.0989: real time    0.0998
    MIXING:  cpu time    0.0065: real time    0.0079
    --------------------------------------------
      LOOP:  cpu time    0.2233: real time    0.2272

 eigenvalue-minimisations  :   144
 total energy-change (2. order) :-0.2785199E+00  (-0.2784443E+00)
 number of electron      40.9999955 magnetization       4.8040309
 augmentation part       -4.4916344 magnetization       3.8922210

 Broyden mixing:
  rms(total) = 0.40495E+01    rms(broyden)= 0.40495E+01
  rms(prec ) = 0.41017E+01
  weight for this iteration     100.00

 Free energy of the ion-electron system (eV)
  ---------------------------------------------------
  alpha Z        PSCENC =         3.30829492
  Ewald energy   TEWEN  =      1380.87360428
  -Hartree energ DENC   =     -3256.91386754
  -exchange      EXHF   =         0.00000000
  -V(xc)+E(xc)   XCENC  =        52.50967868
  PAW double counting   =      1867.73898953    -1809.15421057
  entropy T*S    EENTRO =         0.02016986
  eigenvalues    EBANDS =      -515.69348410
  atomic energy  EATOM  =      2253.20900609
  Solvation  Ediel_sol  =         0.00000000
  ---------------------------------------------------
  free energy    TOTEN  =       -24.10181884 eV

  energy without entropy =      -24.12198870  energy(sigma->0) =      -24.10686131


--------------------------------------------------------------------------------------------------------




----------------------------------------- Iteration    1(   6)  ---------------------------------------


    POTLOK:  cpu time    0.0667: real time    0.0667
    SETDIJ:  cpu time    0.0043: real time    0.0043
    EDDIAG:  cpu time    0.0263: real time    0.0275
  RMM-DIIS:  cpu time    0.0855: real time    0.0856
    ORTHCH:  cpu time    0.0049: real time    0.0049
       DOS:  cpu time    0.0002: real time    0.0002
    CHARGE:  cpu time    0.0870: real time    0.0870
    MIXING:  cpu time    0.0027: real time    0.0036
    --------------------------------------------
      LOOP:  cpu time    0.2792: real time    0.2835

 eigenvalue-minimisations  :   112
 total energy-change (2. order) : 0.1106856E+02  (-0.1850986E+01)
 number of electron      40.9999954 magnetization       3.3422864
 augmentation part       -4.1764547 magnetization       2.5148084

 Broyden mixing:
  rms(total) = 0.18893E+01    rms(broyden)= 0.18893E+01
  rms(prec ) = 0.19012E+01
  weight for this iteration     100.00

 eigenvalues of (default mixing * dielectric matrix)
  average eigenvalue GAMMA=   1.4701
  1.4701

 Free energy of the ion-electron system (eV)
  ---------------------------------------------------
  alpha Z        PSCENC =         3.30829492
  Ewald energy   TEWEN  =      1380.87360428
  -Hartree energ DENC   =     -3267.34655483
  -exchange      EXHF   =         0.00000000
  -V(xc)+E(xc)   XCENC  =        61.48911181
  PAW double counting   =      2536.55427664    -2479.74614344
  entropy T*S    EENTRO =         0.00289902
  eigenvalues    EBANDS =      -501.37775271
  atomic energy  EATOM  =      2253.20900609
  Solvation  Ediel_sol  =         0.00000000
  ---------------------------------------------------
  free energy    TOTEN  =       -13.03325821 eV

  energy without entropy =      -13.03615723  energy(sigma->0) =      -13.03398297


--------------------------------------------------------------------------------------------------------




----------------------------------------- Iteration    1(   7)  ---------------------------------------


    POTLOK:  cpu time    0.0651: real time    0.0651
    SETDIJ:  cpu time    0.0036: real time    0.0036
    EDDIAG:  cpu time    0.0221: real time    0.0221
  RMM-DIIS:  cpu time    0.0626: real time    0.0626
    ORTHCH:  cpu time    0.0048: real time    0.0048
       DOS:  cpu time    0.0002: real time    0.0002
    CHARGE:  cpu time    0.0830: real time    0.0830
    MIXING:  cpu time    0.0020: real time    0.0025
    --------------------------------------------
      LOOP:  cpu time    0.2448: real time    0.2474

 eigenvalue-minimisations  :   113
 total energy-change (2. order) :-0.3783492E+01  (-0.4175775E+00)
 number of electron      40.9999954 magnetization       2.5466194
 augmentation part       -4.0793961 magnetization       1.6976863

 Broyden mixing:
  rms(total) = 0.70629E+00    rms(broyden)= 0.70629E+00
  rms(prec ) = 0.71687E+00
  weight for this iteration     100.00

 eigenvalues of (default mixing * dielectric matrix)
  average eigenvalue GAMMA=   1.3213
  0.7437  1.8989

 Free energy of the ion-electron system (eV)
  ---------------------------------------------------
  alpha Z        PSCENC =         3.30829492
  Ewald energy   TEWEN  =      1380.87360428
  -Hartree energ DENC   =     -3284.01543894
  -exchange      EXHF   =         0.00000000
  -V(xc)+E(xc)   XCENC  =        59.38321985
  PAW double counting   =      3486.64929190    -3430.95939013
  entropy T*S    EENTRO =        -0.01480505
  eigenvalues    EBANDS =      -485.25053337
  atomic energy  EATOM  =      2253.20900609
  Solvation  Ediel_sol  =         0.00000000
  ---------------------------------------------------
  free energy    TOTEN  =       -16.81675046 eV

  energy without entropy =      -16.80194541  energy(sigma->0) =      -16.81304919


--------------------------------------------------------------------------------------------------------




----------------------------------------- Iteration    1(   8)  ---------------------------------------


    POTLOK:  cpu time    0.0652: real time    0.0652
    SETDIJ:  cpu time    0.0036: real time    0.0036
    EDDIAG:  cpu time    0.0219: real time    0.0219
  RMM-DIIS:  cpu time    0.0595: real time    0.0595
    ORTHCH:  cpu time    0.0048: real time    0.0048
       DOS:  cpu time    0.0002: real time    0.0002
    CHARGE:  cpu time    0.0828: real time    0.0828
    MIXING:  cpu time    0.0020: real time    0.0020
    --------------------------------------------
      LOOP:  cpu time    0.2413: real time    0.2433

 eigenvalue-minimisations  :   112
 total energy-change (2. order) :-0.2782458E+01  (-0.1536796E+00)
 number of electron      40.9999954 magnetization       2.0703774
 augmentation part       -4.1513554 magnetization       1.2131798

 Broyden mixing:
  rms(total) = 0.31704E+00    rms(broyden)= 0.31704E+00
  rms(prec ) = 0.32978E+00
  weight for this iteration     100.00

 eigenvalues of (default mixing * dielectric matrix)
  average eigenvalue GAMMA=   1.2997
  2.3467  0.8770  0.6755

 Free energy of the ion-electron system (eV)
  ---------------------------------------------------
  alpha Z        PSCENC =         3.30829492
  Ewald energy   TEWEN  =      1380.87360428
  -Hartree energ DENC   =     -3287.16782878
  -exchange      EXHF   =         0.00000000
  -V(xc)+E(xc)   XCENC  =        57.27045203
  PAW double counting   =      3882.90767650    -3827.52358407
  entropy T*S    EENTRO =         0.00769305
  eigenvalues    EBANDS =      -482.48452211
  atomic energy  EATOM  =      2253.20900609
  Solvation  Ediel_sol  =         0.00000000
  ---------------------------------------------------
  free energy    TOTEN  =       -19.59920808 eV

  energy without entropy =      -19.60690113  energy(sigma->0) =      -19.60113135


--------------------------------------------------------------------------------------------------------




----------------------------------------- Iteration    1(   9)  ---------------------------------------


    POTLOK:  cpu time    0.0651: real time    0.0651
    SETDIJ:  cpu time    0.0037: real time    0.0036
    EDDIAG:  cpu time    0.0219: real time    0.0219
  RMM-DIIS:  cpu time    0.0600: real time    0.0600
    ORTHCH:  cpu time    0.0050: real time    0.0050
       DOS:  cpu time    0.0002: real time    0.0002
    CHARGE:  cpu time    0.0828: real time    0.0828
    MIXING:  cpu time    0.0021: real time    0.0021
    --------------------------------------------
      LOOP:  cpu time    0.2421: real time    0.2442

 eigenvalue-minimisations  :   112
 total energy-change (2. order) :-0.8187840E+00  (-0.3584145E-01)
 number of electron      40.9999954 magnetization       1.7598177
 augmentation part       -4.1200269 magnetization       0.8954742

 Broyden mixing:
  rms(total) = 0.85693E-01    rms(broyden)= 0.85692E-01
  rms(prec ) = 0.98010E-01
  weight for this iteration     100.00

 eigenvalues of (default mixing * dielectric matrix)
  average eigenvalue GAMMA=   1.2673
  2.4633  1.1139  0.7904  0.7018

 Free energy of the ion-electron system (eV)
  ---------------------------------------------------
  alpha Z        PSCENC =         3.30829492
  Ewald energy   TEWEN  =      1380.87360428
  -Hartree energ DENC   =     -3286.78008895
  -exchange      EXHF   =         0.00000000
  -V(xc)+E(xc)   XCENC  =        56.76314959
  PAW double counting   =      4050.45185140    -3995.20591713
  entropy T*S    EENTRO =         0.00400969
  eigenvalues    EBANDS =      -483.04190197
  atomic energy  EATOM  =      2253.20900609
  Solvation  Ediel_sol  =         0.00000000
  ---------------------------------------------------
  free energy    TOTEN  =       -20.41799209 eV

  energy without entropy =      -20.42200178  energy(sigma->0) =      -20.41899451


--------------------------------------------------------------------------------------------------------




----------------------------------------- Iteration    1(  10)  ---------------------------------------


    POTLOK:  cpu time    0.0653: real time    0.0653
    SETDIJ:  cpu time    0.0036: real time    0.0036
    EDDIAG:  cpu time    0.0218: real time    0.0218
  RMM-DIIS:  cpu time    0.0675: real time    0.0675
    ORTHCH:  cpu time    0.0050: real time    0.0050
       DOS:  cpu time    0.0002: real time    0.0002
    CHARGE:  cpu time    0.0830: real time    0.0830
    MIXING:  cpu time    0.0023: real time    0.0026
    --------------------------------------------
      LOOP:  cpu time    0.2503: real time    0.2527

 eigenvalue-minimisations  :   113
 total energy-change (2. order) :-0.4960251E+00  (-0.1825081E-01)
 number of electron      40.9999954 magnetization       1.5150878
 augmentation part       -4.1106587 magnetization       0.6465151

 Broyden mixing:
  rms(total) = 0.59410E-01    rms(broyden)= 0.59409E-01
  rms(prec ) = 0.65776E-01
  weight for this iteration     100.00

 eigenvalues of (default mixing * dielectric matrix)
  average eigenvalue GAMMA=   1.2122
  2.4920  1.4013  0.7721  0.7721  0.6233

 Free energy of the ion-electron system (eV)
  ---------------------------------------------------
  alpha Z        PSCENC =         3.30829492
  Ewald energy   TEWEN  =      1380.87360428
  -Hartree energ DENC   =     -3284.23392496
  -exchange      EXHF   =         0.00000000
  -V(xc)+E(xc)   XCENC  =        56.26317877
  PAW double counting   =      4066.90327074    -4011.62167924
  entropy T*S    EENTRO =         0.01743463
  eigenvalues    EBANDS =      -485.63320241
  atomic energy  EATOM  =      2253.20900609
  Solvation  Ediel_sol  =         0.00000000
  ---------------------------------------------------
  free energy    TOTEN  =       -20.91401718 eV

  energy without entropy =      -20.93145180  energy(sigma->0) =      -20.91837584


--------------------------------------------------------------------------------------------------------




----------------------------------------- Iteration    1(  11)  ---------------------------------------


    POTLOK:  cpu time    0.0651: real time    0.0651
    SETDIJ:  cpu time    0.0036: real time    0.0036
    EDDIAG:  cpu time    0.0219: real time    0.0219
  RMM-DIIS:  cpu time    0.0596: real time    0.0596
    ORTHCH:  cpu time    0.0050: real time    0.0050
       DOS:  cpu time    0.0002: real time    0.0002
    CHARGE:  cpu time    0.0831: real time    0.0831
    MIXING:  cpu time    0.0024: real time    0.0024
    --------------------------------------------
      LOOP:  cpu time    0.2424: real time    0.2443

 eigenvalue-minimisations  :   112
 total energy-change (2. order) :-0.4370398E+00  (-0.8808074E-02)
 number of electron      40.9999954 magnetization       1.3860068
 augmentation part       -4.1190372 magnetization       0.5177037

 Broyden mixing:
  rms(total) = 0.36804E-01    rms(broyden)= 0.36803E-01
  rms(prec ) = 0.39919E-01
  weight for this iteration     100.00

 eigenvalues of (default mixing * dielectric matrix)
  average eigenvalue GAMMA=   1.1920
  2.5543  1.4979  0.9254  0.9254  0.5833  0.6655

 Free energy of the ion-electron system (eV)
  ---------------------------------------------------
  alpha Z        PSCENC =         3.30829492
  Ewald energy   TEWEN  =      1380.87360428
  -Hartree energ DENC   =     -3282.47245336
  -exchange      EXHF   =         0.00000000
  -V(xc)+E(xc)   XCENC  =        55.78269748
  PAW double counting   =      4073.34406662    -4018.02665295
  entropy T*S    EENTRO =         0.00898133
  eigenvalues    EBANDS =      -487.37860135
  atomic energy  EATOM  =      2253.20900609
  Solvation  Ediel_sol  =         0.00000000
  ---------------------------------------------------
  free energy    TOTEN  =       -21.35105695 eV

  energy without entropy =      -21.36003828  energy(sigma->0) =      -21.35330228


--------------------------------------------------------------------------------------------------------




----------------------------------------- Iteration    1(  12)  ---------------------------------------


    POTLOK:  cpu time    0.0651: real time    0.0651
    SETDIJ:  cpu time    0.0036: real time    0.0036
    EDDIAG:  cpu time    0.0219: real time    0.0219
  RMM-DIIS:  cpu time    0.0612: real time    0.0612
    ORTHCH:  cpu time    0.0049: real time    0.0049
       DOS:  cpu time    0.0002: real time    0.0002
    CHARGE:  cpu time    0.0831: real time    0.0831
    MIXING:  cpu time    0.0025: real time    0.0025
    --------------------------------------------
      LOOP:  cpu time    0.2440: real time    0.2460

 eigenvalue-minimisations  :   114
 total energy-change (2. order) :-0.2400926E+00  (-0.2341095E-02)
 number of electron      40.9999954 magnetization       1.2237468
 augmentation part       -4.1239909 magnetization       0.3546872

 Broyden mixing:
  rms(total) = 0.27847E-01    rms(broyden)= 0.27847E-01
  rms(prec ) = 0.30809E-01
  weight for this iteration     100.00

 eigenvalues of (default mixing * dielectric matrix)
  average eigenvalue GAMMA=   1.2081
  2.6279  1.4719  1.4719  0.8442  0.8442  0.6352  0.5613

 Free energy of the ion-electron system (eV)
  ---------------------------------------------------
  alpha Z        PSCENC =         3.30829492
  Ewald energy   TEWEN  =      1380.87360428
  -Hartree energ DENC   =     -3281.93533183
  -exchange      EXHF   =         0.00000000
  -V(xc)+E(xc)   XCENC  =        55.51606965
  PAW double counting   =      4074.14657330    -4018.81883977
  entropy T*S    EENTRO =         0.01400676
  eigenvalues    EBANDS =      -487.90453299
  atomic energy  EATOM  =      2253.20900609
  Solvation  Ediel_sol  =         0.00000000
  ---------------------------------------------------
  free energy    TOTEN  =       -21.59114960 eV

  energy without entropy =      -21.60515636  energy(sigma->0) =      -21.59465129


--------------------------------------------------------------------------------------------------------




----------------------------------------- Iteration    1(  13)  ---------------------------------------


    POTLOK:  cpu time    0.0654: real time    0.0654
    SETDIJ:  cpu time    0.0036: real time    0.0036
    EDDIAG:  cpu time    0.0218: real time    0.0218
  RMM-DIIS:  cpu time    0.0596: real time    0.0596
    ORTHCH:  cpu time    0.0049: real time    0.0049
       DOS:  cpu time    0.0002: real time    0.0002
    CHARGE:  cpu time    0.0873: real time    0.0873
    MIXING:  cpu time    0.0026: real time    0.0026
    --------------------------------------------
      LOOP:  cpu time    0.2469: real time    0.2489

 eigenvalue-minimisations  :   112
 total energy-change (2. order) :-0.3285298E+00  (-0.1888037E-02)
 number of electron      40.9999954 magnetization       1.0766631
 augmentation part       -4.1225939 magnetization       0.2077626

 Broyden mixing:
  rms(total) = 0.14295E-01    rms(broyden)= 0.14295E-01
  rms(prec ) = 0.16681E-01
  weight for this iteration     100.00

 eigenvalues of (default mixing * dielectric matrix)
  average eigenvalue GAMMA=   1.3492
  2.7022  2.7022  1.6715  0.9021  0.8030  0.8030  0.6048  0.6048

 Free energy of the ion-electron system (eV)
  ---------------------------------------------------
  alpha Z        PSCENC =         3.30829492
  Ewald energy   TEWEN  =      1380.87360428
  -Hartree energ DENC   =     -3281.22973827
  -exchange      EXHF   =         0.00000000
  -V(xc)+E(xc)   XCENC  =        55.17211204
  PAW double counting   =      4067.48318826    -4012.14351533
  entropy T*S    EENTRO =         0.01368225
  eigenvalues    EBANDS =      -488.60631364
  atomic energy  EATOM  =      2253.20900609
  Solvation  Ediel_sol  =         0.00000000
  ---------------------------------------------------
  free energy    TOTEN  =       -21.91967940 eV

  energy without entropy =      -21.93336165  energy(sigma->0) =      -21.92309996


--------------------------------------------------------------------------------------------------------




----------------------------------------- Iteration    1(  14)  ---------------------------------------


    POTLOK:  cpu time    0.0650: real time    0.0650
    SETDIJ:  cpu time    0.0036: real time    0.0036
    EDDIAG:  cpu time    0.0218: real time    0.0218
  RMM-DIIS:  cpu time    0.0631: real time    0.0631
    ORTHCH:  cpu time    0.0049: real time    0.0049
       DOS:  cpu time    0.0002: real time    0.0002
    CHARGE:  cpu time    0.0842: real time    0.0842
    MIXING:  cpu time    0.0028: real time    0.0028
    --------------------------------------------
      LOOP:  cpu time    0.2469: real time    0.2491

 eigenvalue-minimisations  :   114
 total energy-change (2. order) :-0.2571772E+00  (-0.2516233E-02)
 number of electron      40.9999954 magnetization       1.0268944
 augmentation part       -4.1236281 magnetization       0.1572835

 Broyden mixing:
  rms(total) = 0.64178E-02    rms(broyden)= 0.64174E-02
  rms(prec ) = 0.85391E-02
  weight for this iteration     100.00

 eigenvalues of (default mixing * dielectric matrix)
  average eigenvalue GAMMA=   1.3401
  3.2347  2.6720  1.4926  1.0320  0.8430  0.8430  0.7294  0.6552  0.5592

 Free energy of the ion-electron system (eV)
  ---------------------------------------------------
  alpha Z        PSCENC =         3.30829492
  Ewald energy   TEWEN  =      1380.87360428
  -Hartree energ DENC   =     -3280.48730625
  -exchange      EXHF   =         0.00000000
  -V(xc)+E(xc)   XCENC  =        54.88447098
  PAW double counting   =      4058.11535737    -4002.76052220
  entropy T*S    EENTRO =         0.01471817
  eigenvalues    EBANDS =      -489.33447997
  atomic energy  EATOM  =      2253.20900609
  Solvation  Ediel_sol  =         0.00000000
  ---------------------------------------------------
  free energy    TOTEN  =       -22.17685661 eV

  energy without entropy =      -22.19157478  energy(sigma->0) =      -22.18053615


--------------------------------------------------------------------------------------------------------




----------------------------------------- Iteration    1(  15)  ---------------------------------------


    POTLOK:  cpu time    0.0652: real time    0.0653
    SETDIJ:  cpu time    0.0036: real time    0.0036
    EDDIAG:  cpu time    0.0219: real time    0.0219
  RMM-DIIS:  cpu time    0.0647: real time    0.0647
    ORTHCH:  cpu time    0.0049: real time    0.0049
       DOS:  cpu time    0.0002: real time    0.0002
    CHARGE:  cpu time    0.0862: real time    0.0862
    MIXING:  cpu time    0.0030: real time    0.0030
    --------------------------------------------
      LOOP:  cpu time    0.2512: real time    0.2533

 eigenvalue-minimisations  :   120
 total energy-change (2. order) :-0.4614022E-01  (-0.7122389E-03)
 number of electron      40.9999954 magnetization       0.9961887
 augmentation part       -4.1240611 magnetization       0.1257525

 Broyden mixing:
  rms(total) = 0.35000E-02    rms(broyden)= 0.34997E-02
  rms(prec ) = 0.55934E-02
  weight for this iteration     100.00

 eigenvalues of (default mixing * dielectric matrix)
  average eigenvalue GAMMA=   1.3429
  3.6219  2.5716  1.4417  1.4417  0.8592  0.8592  0.6947  0.6947  0.6701  0.5743

 Free energy of the ion-electron system (eV)
  ---------------------------------------------------
  alpha Z        PSCENC =         3.30829492
  Ewald energy   TEWEN  =      1380.87360428
  -Hartree energ DENC   =     -3280.20444792
  -exchange      EXHF   =         0.00000000
  -V(xc)+E(xc)   XCENC  =        54.82820316
  PAW double counting   =      4057.53910476    -4002.18255129
  entropy T*S    EENTRO =         0.01515336
  eigenvalues    EBANDS =      -489.60936419
  atomic energy  EATOM  =      2253.20900609
  Solvation  Ediel_sol  =         0.00000000
  ---------------------------------------------------
  free energy    TOTEN  =       -22.22299683 eV

  energy without entropy =      -22.23815019  energy(sigma->0) =      -22.22678517


--------------------------------------------------------------------------------------------------------




----------------------------------------- Iteration    1(  16)  ---------------------------------------


    POTLOK:  cpu time    0.0652: real time    0.0652
    SETDIJ:  cpu time    0.0036: real time    0.0036
    EDDIAG:  cpu time    0.0218: real time    0.0218
  RMM-DIIS:  cpu time    0.0655: real time    0.0655
    ORTHCH:  cpu time    0.0050: real time    0.0050
       DOS:  cpu time    0.0002: real time    0.0002
    CHARGE:  cpu time    0.0863: real time    0.0863
    MIXING:  cpu time    0.0030: real time    0.0030
    --------------------------------------------
      LOOP:  cpu time    0.2520: real time    0.2541

 eigenvalue-minimisations  :   117
 total energy-change (2. order) :-0.8391543E-02  (-0.1740739E-03)
 number of electron      40.9999954 magnetization       0.9884683
 augmentation part       -4.1239863 magnetization       0.1173314

 Broyden mixing:
  rms(total) = 0.22087E-02    rms(broyden)= 0.22086E-02
  rms(prec ) = 0.39701E-02
  weight for this iteration     100.00

 eigenvalues of (default mixing * dielectric matrix)
  average eigenvalue GAMMA=   1.3627
  3.8035  2.4938  1.6948  1.6948  0.9023  0.9023  0.8396  0.8396  0.6244  0.6244
  0.5701

 Free energy of the ion-electron system (eV)
  ---------------------------------------------------
  alpha Z        PSCENC =         3.30829492
  Ewald energy   TEWEN  =      1380.87360428
  -Hartree energ DENC   =     -3280.02326926
  -exchange      EXHF   =         0.00000000
  -V(xc)+E(xc)   XCENC  =        54.81473778
  PAW double counting   =      4058.38657078    -4003.03123544
  entropy T*S    EENTRO =         0.01521246
  eigenvalues    EBANDS =      -489.78430999
  atomic energy  EATOM  =      2253.20900609
  Solvation  Ediel_sol  =         0.00000000
  ---------------------------------------------------
  free energy    TOTEN  =       -22.23138838 eV

  energy without entropy =      -22.24660084  energy(sigma->0) =      -22.23519149


--------------------------------------------------------------------------------------------------------




----------------------------------------- Iteration    1(  17)  ---------------------------------------


    POTLOK:  cpu time    0.0648: real time    0.0648
    SETDIJ:  cpu time    0.0036: real time    0.0036
    EDDIAG:  cpu time    0.0217: real time    0.0217
  RMM-DIIS:  cpu time    0.0633: real time    0.0633
    ORTHCH:  cpu time    0.0049: real time    0.0049
       DOS:  cpu time    0.0002: real time    0.0002
    CHARGE:  cpu time    0.0848: real time    0.0848
    MIXING:  cpu time    0.0031: real time    0.0031
    --------------------------------------------
      LOOP:  cpu time    0.2479: real time    0.2499

 eigenvalue-minimisations  :   119
 total energy-change (2. order) :-0.1412016E-02  (-0.3878214E-04)
 number of electron      40.9999954 magnetization       0.9824752
 augmentation part       -4.1237867 magnetization       0.1111749

 Broyden mixing:
  rms(total) = 0.13074E-02    rms(broyden)= 0.13073E-02
  rms(prec ) = 0.27636E-02
  weight for this iteration     100.00

 eigenvalues of (default mixing * dielectric matrix)
  average eigenvalue GAMMA=   1.3653
  3.8875  2.3185  2.3185  1.5287  1.0618  1.0618  0.8289  0.8289  0.7307  0.5718
  0.6233  0.6233

 Free energy of the ion-electron system (eV)
  ---------------------------------------------------
  alpha Z        PSCENC =         3.30829492
  Ewald energy   TEWEN  =      1380.87360428
  -Hartree energ DENC   =     -3279.96126993
  -exchange      EXHF   =         0.00000000
  -V(xc)+E(xc)   XCENC  =        54.81268422
  PAW double counting   =      4059.43934534    -4004.08638967
  entropy T*S    EENTRO =         0.01531089
  eigenvalues    EBANDS =      -489.84338651
  atomic energy  EATOM  =      2253.20900609
  Solvation  Ediel_sol  =         0.00000000
  ---------------------------------------------------
  free energy    TOTEN  =       -22.23280039 eV

  energy without entropy =      -22.24811128  energy(sigma->0) =      -22.23662811


--------------------------------------------------------------------------------------------------------




----------------------------------------- Iteration    1(  18)  ---------------------------------------


    POTLOK:  cpu time    0.0652: real time    0.0653
    SETDIJ:  cpu time    0.0037: real time    0.0037
    EDDIAG:  cpu time    0.0220: real time    0.0220
  RMM-DIIS:  cpu time    0.0614: real time    0.0614
    ORTHCH:  cpu time    0.0048: real time    0.0048
       DOS:  cpu time    0.0002: real time    0.0002
    CHARGE:  cpu time    0.0845: real time    0.0845
    MIXING:  cpu time    0.0033: real time    0.0033
    --------------------------------------------
      LOOP:  cpu time    0.2473: real time    0.2489

 eigenvalue-minimisations  :   111
 total energy-change (2. order) :-0.4174995E-03  (-0.1411284E-04)
 number of electron      40.9999954 magnetization       0.9806780
 augmentation part       -4.1238771 magnetization       0.1093868

 Broyden mixing:
  rms(total) = 0.90539E-03    rms(broyden)= 0.90537E-03
  rms(prec ) = 0.19080E-02
  weight for this iteration     100.00

 eigenvalues of (default mixing * dielectric matrix)
  average eigenvalue GAMMA=   1.4038
  4.0810  2.5789  2.5789  1.4585  1.2011  1.2011  0.9797  0.8278  0.8278  0.7068
  0.5733  0.6170  0.6170

 Free energy of the ion-electron system (eV)
  ---------------------------------------------------
  alpha Z        PSCENC =         3.30829492
  Ewald energy   TEWEN  =      1380.87360428
  -Hartree energ DENC   =     -3279.85419755
  -exchange      EXHF   =         0.00000000
  -V(xc)+E(xc)   XCENC  =        54.80871111
  PAW double counting   =      4060.16143539    -4004.80871432
  entropy T*S    EENTRO =         0.01524366
  eigenvalues    EBANDS =      -489.94660147
  atomic energy  EATOM  =      2253.20900609
  Solvation  Ediel_sol  =         0.00000000
  ---------------------------------------------------
  free energy    TOTEN  =       -22.23321789 eV

  energy without entropy =      -22.24846155  energy(sigma->0) =      -22.23702881


--------------------------------------------------------------------------------------------------------




----------------------------------------- Iteration    1(  19)  ---------------------------------------


    POTLOK:  cpu time    0.0651: real time    0.0651
    SETDIJ:  cpu time    0.0036: real time    0.0036
    EDDIAG:  cpu time    0.0221: real time    0.0221
  RMM-DIIS:  cpu time    0.0590: real time    0.0590
    ORTHCH:  cpu time    0.0049: real time    0.0049
       DOS:  cpu time    0.0002: real time    0.0002
    CHARGE:  cpu time    0.0840: real time    0.0840
    MIXING:  cpu time    0.0035: real time    0.0035
    --------------------------------------------
      LOOP:  cpu time    0.2438: real time    0.2458

 eigenvalue-minimisations  :   108
 total energy-change (2. order) :-0.1737152E-03  (-0.1229621E-04)
 number of electron      40.9999954 magnetization       0.9830837
 augmentation part       -4.1239209 magnetization       0.1117704

 Broyden mixing:
  rms(total) = 0.72226E-03    rms(broyden)= 0.72225E-03
  rms(prec ) = 0.12390E-02
  weight for this iteration     100.00

 eigenvalues of (default mixing * dielectric matrix)
  average eigenvalue GAMMA=   1.4291
  4.3925  2.6929  2.6929  1.5158  1.5158  1.1235  1.1235  0.8222  0.8222  0.7948
  0.7188  0.5788  0.6070  0.6070

 Free energy of the ion-electron system (eV)
  ---------------------------------------------------
  alpha Z        PSCENC =         3.30829492
  Ewald energy   TEWEN  =      1380.87360428
  -Hartree energ DENC   =     -3279.75064256
  -exchange      EXHF   =         0.00000000
  -V(xc)+E(xc)   XCENC  =        54.80555543
  PAW double counting   =      4060.41912697    -4005.06603466
  entropy T*S    EENTRO =         0.01536502
  eigenvalues    EBANDS =      -490.04766711
  atomic energy  EATOM  =      2253.20900609
  Solvation  Ediel_sol  =         0.00000000
  ---------------------------------------------------
  free energy    TOTEN  =       -22.23339161 eV

  energy without entropy =      -22.24875663  energy(sigma->0) =      -22.23723286


--------------------------------------------------------------------------------------------------------




----------------------------------------- Iteration    1(  20)  ---------------------------------------


    POTLOK:  cpu time    0.0653: real time    0.0653
    SETDIJ:  cpu time    0.0036: real time    0.0036
    EDDIAG:  cpu time    0.0220: real time    0.0220
  RMM-DIIS:  cpu time    0.0571: real time    0.0572
    ORTHCH:  cpu time    0.0050: real time    0.0050
       DOS:  cpu time    0.0002: real time    0.0002
    CHARGE:  cpu time    0.0837: real time    0.0837
    MIXING:  cpu time    0.0038: real time    0.0037
    --------------------------------------------
      LOOP:  cpu time    0.2421: real time    0.2444

 eigenvalue-minimisations  :   104
 total energy-change (2. order) :-0.7111938E-03  (-0.6874263E-05)
 number of electron      40.9999954 magnetization       0.9863209
 augmentation part       -4.1238869 magnetization       0.1149496

 Broyden mixing:
  rms(total) = 0.52227E-03    rms(broyden)= 0.52227E-03
  rms(prec ) = 0.81544E-03
  weight for this iteration     100.00

 eigenvalues of (default mixing * dielectric matrix)
  average eigenvalue GAMMA=   1.4402
  4.6653  2.7195  2.7195  1.7145  1.7145  1.1151  1.1151  0.9554  0.8224  0.8224
  0.7680  0.6841  0.5698  0.6090  0.6090

 Free energy of the ion-electron system (eV)
  ---------------------------------------------------
  alpha Z        PSCENC =         3.30829492
  Ewald energy   TEWEN  =      1380.87360428
  -Hartree energ DENC   =     -3279.71175308
  -exchange      EXHF   =         0.00000000
  -V(xc)+E(xc)   XCENC  =        54.80425841
  PAW double counting   =      4060.23232242    -4004.87908817
  entropy T*S    EENTRO =         0.01545554
  eigenvalues    EBANDS =      -490.08620321
  atomic energy  EATOM  =      2253.20900609
  Solvation  Ediel_sol  =         0.00000000
  ---------------------------------------------------
  free energy    TOTEN  =       -22.23410280 eV

  energy without entropy =      -22.24955834  energy(sigma->0) =      -22.23796669


--------------------------------------------------------------------------------------------------------




----------------------------------------- Iteration    1(  21)  ---------------------------------------


    POTLOK:  cpu time    0.0650: real time    0.0650
    SETDIJ:  cpu time    0.0036: real time    0.0036
    EDDIAG:  cpu time    0.0218: real time    0.0218
  RMM-DIIS:  cpu time    0.0565: real time    0.0565
    ORTHCH:  cpu time    0.0048: real time    0.0048
       DOS:  cpu time    0.0002: real time    0.0002
    CHARGE:  cpu time    0.0841: real time    0.0841
    MIXING:  cpu time    0.0038: real time    0.0038
    --------------------------------------------
      LOOP:  cpu time    0.2411: real time    0.2432

 eigenvalue-minimisations  :   105
 total energy-change (2. order) :-0.7204843E-03  (-0.4726817E-05)
 number of electron      40.9999954 magnetization       0.9889444
 augmentation part       -4.1239124 magnetization       0.1175351

 Broyden mixing:
  rms(total) = 0.30667E-03    rms(broyden)= 0.30667E-03
  rms(prec ) = 0.45606E-03
  weight for this iteration     100.00

 eigenvalues of (default mixing * dielectric matrix)
  average eigenvalue GAMMA=   1.5588
  5.5940  3.3689  2.5256  2.5256  1.7201  1.2547  1.2547  1.0462  0.8224  0.8224
  0.8624  0.6785  0.6785  0.5726  0.6072  0.6072

 Free energy of the ion-electron system (eV)
  ---------------------------------------------------
  alpha Z        PSCENC =         3.30829492
  Ewald energy   TEWEN  =      1380.87360428
  -Hartree energ DENC   =     -3279.68559369
  -exchange      EXHF   =         0.00000000
  -V(xc)+E(xc)   XCENC  =        54.80307173
  PAW double counting   =      4060.03411966    -4004.68062982
  entropy T*S    EENTRO =         0.01547393
  eigenvalues    EBANDS =      -490.11217038
  atomic energy  EATOM  =      2253.20900609
  Solvation  Ediel_sol  =         0.00000000
  ---------------------------------------------------
  free energy    TOTEN  =       -22.23482328 eV

  energy without entropy =      -22.25029721  energy(sigma->0) =      -22.23869177


--------------------------------------------------------------------------------------------------------




----------------------------------------- Iteration    1(  22)  ---------------------------------------


    POTLOK:  cpu time    0.0651: real time    0.0651
    SETDIJ:  cpu time    0.0036: real time    0.0036
    EDDIAG:  cpu time    0.0221: real time    0.0221
  RMM-DIIS:  cpu time    0.0569: real time    0.0569
    ORTHCH:  cpu time    0.0049: real time    0.0049
       DOS:  cpu time    0.0002: real time    0.0002
    CHARGE:  cpu time    0.0843: real time    0.0843
    MIXING:  cpu time    0.0040: real time    0.0040
    --------------------------------------------
      LOOP:  cpu time    0.2424: real time    0.2444

 eigenvalue-minimisations  :   105
 total energy-change (2. order) :-0.4293924E-03  (-0.2517042E-05)
 number of electron      40.9999954 magnetization       0.9901796
 augmentation part       -4.1239284 magnetization       0.1187703

 Broyden mixing:
  rms(total) = 0.17211E-03    rms(broyden)= 0.17210E-03
  rms(prec ) = 0.27003E-03
  weight for this iteration     100.00

 eigenvalues of (default mixing * dielectric matrix)
  average eigenvalue GAMMA=   1.6253
  6.7376  3.7360  2.5815  2.5815  1.7207  1.2028  1.2028  1.1600  1.1600  0.8260
  0.8260  0.7674  0.7012  0.5714  0.6062  0.6062  0.6434

 Free energy of the ion-electron system (eV)
  ---------------------------------------------------
  alpha Z        PSCENC =         3.30829492
  Ewald energy   TEWEN  =      1380.87360428
  -Hartree energ DENC   =     -3279.67940591
  -exchange      EXHF   =         0.00000000
  -V(xc)+E(xc)   XCENC  =        54.80280512
  PAW double counting   =      4060.04178672    -4004.68829426
  entropy T*S    EENTRO =         0.01548437
  eigenvalues    EBANDS =      -490.11853400
  atomic energy  EATOM  =      2253.20900609
  Solvation  Ediel_sol  =         0.00000000
  ---------------------------------------------------
  free energy    TOTEN  =       -22.23525268 eV

  energy without entropy =      -22.25073704  energy(sigma->0) =      -22.23912377


--------------------------------------------------------------------------------------------------------




----------------------------------------- Iteration    1(  23)  ---------------------------------------


    POTLOK:  cpu time    0.0651: real time    0.0651
    SETDIJ:  cpu time    0.0036: real time    0.0036
    EDDIAG:  cpu time    0.0218: real time    0.0218
  RMM-DIIS:  cpu time    0.0492: real time    0.0492
    ORTHCH:  cpu time    0.0049: real time    0.0049
       DOS:  cpu time    0.0002: real time    0.0002
    CHARGE:  cpu time    0.0842: real time    0.0842
    MIXING:  cpu time    0.0042: real time    0.0042
    --------------------------------------------
      LOOP:  cpu time    0.2345: real time    0.2364

 eigenvalue-minimisations  :    84
 total energy-change (2. order) :-0.9382483E-04  (-0.5206801E-06)
 number of electron      40.9999954 magnetization       0.9908147
 augmentation part       -4.1239341 magnetization       0.1194196

 Broyden mixing:
  rms(total) = 0.10602E-03    rms(broyden)= 0.10601E-03
  rms(prec ) = 0.17904E-03
  weight for this iteration     100.00

 eigenvalues of (default mixing * dielectric matrix)
  average eigenvalue GAMMA=   1.6848
  7.6016  3.9546  2.5798  2.5798  2.0936  1.4470  1.2181  1.2181  1.2404  0.8203
  0.8203  0.8679  0.7999  0.6849  0.6168  0.6168  0.5719  0.5952

 Free energy of the ion-electron system (eV)
  ---------------------------------------------------
  alpha Z        PSCENC =         3.30829492
  Ewald energy   TEWEN  =      1380.87360428
  -Hartree energ DENC   =     -3279.67979397
  -exchange      EXHF   =         0.00000000
  -V(xc)+E(xc)   XCENC  =        54.80290453
  PAW double counting   =      4060.07188713    -4004.71845033
  entropy T*S    EENTRO =         0.01548361
  eigenvalues    EBANDS =      -490.11828277
  atomic energy  EATOM  =      2253.20900609
  Solvation  Ediel_sol  =         0.00000000
  ---------------------------------------------------
  free energy    TOTEN  =       -22.23534650 eV

  energy without entropy =      -22.25083012  energy(sigma->0) =      -22.23921740


--------------------------------------------------------------------------------------------------------




----------------------------------------- Iteration    1(  24)  ---------------------------------------


    POTLOK:  cpu time    0.0651: real time    0.0651
    SETDIJ:  cpu time    0.0036: real time    0.0036
    EDDIAG:  cpu time    0.0218: real time    0.0218
  RMM-DIIS:  cpu time    0.0416: real time    0.0416
    ORTHCH:  cpu time    0.0050: real time    0.0050
       DOS:  cpu time    0.0002: real time    0.0002
    CHARGE:  cpu time    0.0840: real time    0.0840
    MIXING:  cpu time    0.0043: real time    0.0043
    --------------------------------------------
      LOOP:  cpu time    0.2270: real time    0.2291

 eigenvalue-minimisations  :    70
 total energy-change (2. order) :-0.1400910E-04  (-0.1619821E-06)
 number of electron      40.9999954 magnetization       0.9909191
 augmentation part       -4.1239361 magnetization       0.1195288

 Broyden mixing:
  rms(total) = 0.66753E-04    rms(broyden)= 0.66748E-04
  rms(prec ) = 0.11447E-03
  weight for this iteration     100.00

 eigenvalues of (default mixing * dielectric matrix)
  average eigenvalue GAMMA=   1.6986
  8.1262  4.0423  2.6562  2.6562  2.3518  1.6136  1.1863  1.1863  1.1773  1.0473
  0.8262  0.8262  0.7649  0.7649  0.6669  0.6123  0.6123  0.5681  0.5874

 Free energy of the ion-electron system (eV)
  ---------------------------------------------------
  alpha Z        PSCENC =         3.30829492
  Ewald energy   TEWEN  =      1380.87360428
  -Hartree energ DENC   =     -3279.68087222
  -exchange      EXHF   =         0.00000000
  -V(xc)+E(xc)   XCENC  =        54.80296104
  PAW double counting   =      4060.04713164    -4004.69368168
  entropy T*S    EENTRO =         0.01548913
  eigenvalues    EBANDS =      -490.11729371
  atomic energy  EATOM  =      2253.20900609
  Solvation  Ediel_sol  =         0.00000000
  ---------------------------------------------------
  free energy    TOTEN  =       -22.23536051 eV

  energy without entropy =      -22.25084964  energy(sigma->0) =      -22.23923279


--------------------------------------------------------------------------------------------------------




----------------------------------------- Iteration    1(  25)  ---------------------------------------


    POTLOK:  cpu time    0.0652: real time    0.0652
    SETDIJ:  cpu time    0.0036: real time    0.0036
    EDDIAG:  cpu time    0.0220: real time    0.0220
  RMM-DIIS:  cpu time    0.0375: real time    0.0375
    ORTHCH:  cpu time    0.0048: real time    0.0048
       DOS:  cpu time    0.0002: real time    0.0002
    CHARGE:  cpu time    0.0840: real time    0.0840
    MIXING:  cpu time    0.0045: real time    0.0045
    --------------------------------------------
      LOOP:  cpu time    0.2233: real time    0.2254

 eigenvalue-minimisations  :    58
 total energy-change (2. order) :-0.1246948E-04  (-0.4600592E-07)
 number of electron      40.9999954 magnetization       0.9909443
 augmentation part       -4.1239370 magnetization       0.1195544

 Broyden mixing:
  rms(total) = 0.44934E-04    rms(broyden)= 0.44931E-04
  rms(prec ) = 0.78906E-04
  weight for this iteration     100.00

 eigenvalues of (default mixing * dielectric matrix)
  average eigenvalue GAMMA=   1.7066
  8.2728  4.1664  2.7903  2.7903  2.3654  1.7296  1.4579  1.1711  1.1711  1.0934
  0.8237  0.8237  0.8668  0.8668  0.7050  0.6556  0.6117  0.6117  0.5700  0.5879

 Free energy of the ion-electron system (eV)
  ---------------------------------------------------
  alpha Z        PSCENC =         3.30829492
  Ewald energy   TEWEN  =      1380.87360428
  -Hartree energ DENC   =     -3279.68096048
  -exchange      EXHF   =         0.00000000
  -V(xc)+E(xc)   XCENC  =        54.80296185
  PAW double counting   =      4060.03608939    -4004.68260885
  entropy T*S    EENTRO =         0.01548415
  eigenvalues    EBANDS =      -490.11724433
  atomic energy  EATOM  =      2253.20900609
  Solvation  Ediel_sol  =         0.00000000
  ---------------------------------------------------
  free energy    TOTEN  =       -22.23537298 eV

  energy without entropy =      -22.25085713  energy(sigma->0) =      -22.23924402


--------------------------------------------------------------------------------------------------------




----------------------------------------- Iteration    1(  26)  ---------------------------------------


    POTLOK:  cpu time    0.0652: real time    0.0652
    SETDIJ:  cpu time    0.0036: real time    0.0036
    EDDIAG:  cpu time    0.0219: real time    0.0219
  RMM-DIIS:  cpu time    0.0362: real time    0.0362
    ORTHCH:  cpu time    0.0048: real time    0.0048
       DOS:  cpu time    0.0002: real time    0.0002
    CHARGE:  cpu time    0.0842: real time    0.0843
    MIXING:  cpu time    0.0047: real time    0.0047
    --------------------------------------------
      LOOP:  cpu time    0.2223: real time    0.2245

 eigenvalue-minimisations  :    55
 total energy-change (2. order) :-0.1067071E-04  (-0.3264621E-07)
 number of electron      40.9999954 magnetization       0.9907539
 augmentation part       -4.1239334 magnetization       0.1193646

 Broyden mixing:
  rms(total) = 0.28021E-04    rms(broyden)= 0.28017E-04
  rms(prec ) = 0.48421E-04
  weight for this iteration     100.00

 eigenvalues of (default mixing * dielectric matrix)
  average eigenvalue GAMMA=   1.7107
  8.4016  4.2409  3.0796  2.7362  2.3815  2.0631  1.3231  1.3231  1.1761  1.1761
  1.0155  0.8216  0.8216  0.8279  0.8279  0.6898  0.6331  0.6125  0.6125  0.5686
  0.5933

 Free energy of the ion-electron system (eV)
  ---------------------------------------------------
  alpha Z        PSCENC =         3.30829492
  Ewald energy   TEWEN  =      1380.87360428
  -Hartree energ DENC   =     -3279.68132874
  -exchange      EXHF   =         0.00000000
  -V(xc)+E(xc)   XCENC  =        54.80300999
  PAW double counting   =      4060.04852165    -4004.69504072
  entropy T*S    EENTRO =         0.01548503
  eigenvalues    EBANDS =      -490.11693615
  atomic energy  EATOM  =      2253.20900609
  Solvation  Ediel_sol  =         0.00000000
  ---------------------------------------------------
  free energy    TOTEN  =       -22.23538365 eV

  energy without entropy =      -22.25086868  energy(sigma->0) =      -22.23925491


--------------------------------------------------------------------------------------------------------




----------------------------------------- Iteration    1(  27)  ---------------------------------------


    POTLOK:  cpu time    0.0663: real time    0.0663
    SETDIJ:  cpu time    0.0036: real time    0.0036
    EDDIAG:  cpu time    0.0218: real time    0.0218
  RMM-DIIS:  cpu time    0.0346: real time    0.0346
    ORTHCH:  cpu time    0.0049: real time    0.0049
       DOS:  cpu time    0.0002: real time    0.0002
    CHARGE:  cpu time    0.0837: real time    0.0837
    MIXING:  cpu time    0.0049: real time    0.0049
    --------------------------------------------
      LOOP:  cpu time    0.2215: real time    0.2235

 eigenvalue-minimisations  :    49
 total energy-change (2. order) :-0.1142866E-04  (-0.2044601E-07)
 number of electron      40.9999954 magnetization       0.9906377
 augmentation part       -4.1239308 magnetization       0.1192492

 Broyden mixing:
  rms(total) = 0.23207E-04    rms(broyden)= 0.23205E-04
  rms(prec ) = 0.33862E-04
  weight for this iteration     100.00

 eigenvalues of (default mixing * dielectric matrix)
  average eigenvalue GAMMA=   1.7304
  8.4640  4.3325  3.4866  2.6246  2.6246  2.1991  1.5195  1.5195  1.1747  1.1747
  1.1556  0.8215  0.8215  0.8686  0.8077  0.8077  0.5683  0.6189  0.6189  0.6436
  0.6084  0.6084

 Free energy of the ion-electron system (eV)
  ---------------------------------------------------
  alpha Z        PSCENC =         3.30829492
  Ewald energy   TEWEN  =      1380.87360428
[...]

 eigenvalues of (default mixing * dielectric matrix)
  average eigenvalue GAMMA=   0.4371
  0.4371

 Free energy of the ion-electron system (eV)
  ---------------------------------------------------
  alpha Z        PSCENC =         3.30829492
  Ewald energy   TEWEN  =      1122.41539360
  -Hartree energ DENC   =     -3029.79866968
  -exchange      EXHF   =         0.00000000
  -V(xc)+E(xc)   XCENC  =        53.19503526
  PAW double counting   =      3179.80429464    -3123.42851333
  entropy T*S    EENTRO =         0.02290933
  eigenvalues    EBANDS =      -485.53375673
  atomic energy  EATOM  =      2253.20900609
  Solvation  Ediel_sol  =         0.00000000
  ---------------------------------------------------
  free energy    TOTEN  =       -26.80600590 eV

  energy without entropy =      -26.82891523  energy(sigma->0) =      -26.81173323


--------------------------------------------------------------------------------------------------------




----------------------------------------- Iteration   64(   3)  ---------------------------------------


    POTLOK:  cpu time    0.0654: real time    0.0654
    SETDIJ:  cpu time    0.0036: real time    0.0036
    EDDIAG:  cpu time    0.0219: real time    0.0219
  RMM-DIIS:  cpu time    0.0590: real time    0.0590
    ORTHCH:  cpu time    0.0048: real time    0.0048
       DOS:  cpu time    0.0002: real time    0.0002
    CHARGE:  cpu time    0.0863: real time    0.0863
    MIXING:  cpu time    0.0019: real time    0.0019
    --------------------------------------------
      LOOP:  cpu time    0.2448: real time    0.2467

 eigenvalue-minimisations  :   112
 total energy-change (2. order) :-0.3365972E-03  (-0.1601192E-04)
 number of electron      40.9999994 magnetization       0.9897154
 augmentation part       -4.0947383 magnetization       0.1914991

 Broyden mixing:
  rms(total) = 0.41103E-02    rms(broyden)= 0.41100E-02
  rms(prec ) = 0.42942E-02
  weight for this iteration     100.00

 eigenvalues of (default mixing * dielectric matrix)
  average eigenvalue GAMMA=   0.5467
  0.6422  0.4512

 Free energy of the ion-electron system (eV)
  ---------------------------------------------------
  alpha Z        PSCENC =         3.30829492
  Ewald energy   TEWEN  =      1122.41539360
  -Hartree energ DENC   =     -3029.79869111
  -exchange      EXHF   =         0.00000000
  -V(xc)+E(xc)   XCENC  =        53.19635418
  PAW double counting   =      3179.81278698    -3123.43723945
  entropy T*S    EENTRO =         0.02438228
  eigenvalues    EBANDS =      -485.53662999
  atomic energy  EATOM  =      2253.20900609
  Solvation  Ediel_sol  =         0.00000000
  ---------------------------------------------------
  free energy    TOTEN  =       -26.80634250 eV

  energy without entropy =      -26.83072478  energy(sigma->0) =      -26.81243807


--------------------------------------------------------------------------------------------------------




----------------------------------------- Iteration   64(   4)  ---------------------------------------


    POTLOK:  cpu time    0.0652: real time    0.0652
    SETDIJ:  cpu time    0.0036: real time    0.0036
    EDDIAG:  cpu time    0.0218: real time    0.0218
  RMM-DIIS:  cpu time    0.0589: real time    0.0590
    ORTHCH:  cpu time    0.0047: real time    0.0047
       DOS:  cpu time    0.0002: real time    0.0002
    --------------------------------------------
      LOOP:  cpu time    0.1560: real time    0.1581

 eigenvalue-minimisations  :   105
 total energy-change (2. order) :-0.8705574E-06  (-0.7367256E-06)
 number of electron      40.9999994 magnetization       0.9897154
 augmentation part       -4.0947383 magnetization       0.1914991

 Free energy of the ion-electron system (eV)
  ---------------------------------------------------
  alpha Z        PSCENC =         3.30829492
  Ewald energy   TEWEN  =      1122.41539360
  -Hartree energ DENC   =     -3029.79917174
  -exchange      EXHF   =         0.00000000
  -V(xc)+E(xc)   XCENC  =        53.19663717
  PAW double counting   =      3179.81513236    -3123.43956312
  entropy T*S    EENTRO =         0.02418516
  eigenvalues    EBANDS =      -485.53625781
  atomic energy  EATOM  =      2253.20900609
  Solvation  Ediel_sol  =         0.00000000
  ---------------------------------------------------
  free energy    TOTEN  =       -26.80634337 eV

  energy without entropy =      -26.83052852  energy(sigma->0) =      -26.81238966


--------------------------------------------------------------------------------------------------------




 average (electrostatic) potential at core
  the test charge radii are     1.1823  0.9406
  (the norm of the test charge is              1.0000)
       1 -52.8307       2-100.8675       3-100.8675       4-102.4808       5-100.9311
       6-100.9383
 
 
 
 E-fermi :  -4.8708     XC(G=0):  -0.6786     alpha+bet : -0.3475


 spin component 1

 k-point     1 :       0.0000    0.0000    0.0000
  band No.  band energies     occupation 
      1     -21.9153      1.00000
      2     -20.8642      1.00000
      3     -20.2994      1.00000
      4     -20.2176      1.00000
      5     -20.2099      1.00000
      6     -11.4351      1.00000
      7     -10.7192      1.00000
      8     -10.3835      1.00000
      9     -10.3566      1.00000
     10     -10.3314      1.00000
     11     -10.0771      1.00000
     12      -9.3999      1.00000
     13      -9.3631      1.00000
     14      -9.0060      1.00000
     15      -8.2076      1.00000
     16      -8.1458      1.00000
     17      -7.7099      1.00000
     18      -7.6977      1.00000
     19      -7.6425      1.00000
     20      -6.8900      1.00000
     21      -5.0876      1.04713
     22      -4.7172     -0.03610
     23      -4.5855     -0.01669
     24      -3.8960      0.00000
     25      -1.6320      0.00000
     26      -0.5926      0.00000
     27       0.3688      0.00000
     28       0.4485      0.00000

 spin component 2

 k-point     1 :       0.0000    0.0000    0.0000
  band No.  band energies     occupation 
      1     -21.9337      1.00000
      2     -20.8189      1.00000
      3     -20.2680      1.00000
      4     -20.1849      1.00000
      5     -20.1789      1.00000
      6     -11.4115      1.00000
      7     -10.5565      1.00000
      8     -10.3008      1.00000
      9     -10.2885      1.00000
     10     -10.2669      1.00000
     11      -9.6992      1.00000
     12      -9.3702      1.00000
     13      -9.3302      1.00000
     14      -8.9920      1.00000
     15      -8.2019      1.00000
     16      -8.1432      1.00000
     17      -7.7198      1.00000
     18      -7.5877      1.00000
     19      -7.5451      1.00000
     20      -6.7608      1.00000
     21      -4.4851      0.00464
     22      -4.3293      0.00102
     23      -4.0161      0.00000
     24      -3.6946      0.00000
     25      -1.5321      0.00000
     26      -0.5460      0.00000
     27       0.3801      0.00000
     28       0.5006      0.00000


--------------------------------------------------------------------------------------------------------


 soft charge-density along one line, spin component           1
         0         1         2         3         4         5         6         7         8         9
 total charge-density along one line
 
 soft charge-density along one line, spin component           2
         0         1         2         3         4         5         6         7         8         9
 total charge-density along one line
 
 pseudopotential strength for first ion, spin component:           1
 -9.634   0.012  -0.012  -0.001  -0.001 -11.124   0.014  -0.014
  0.012  -9.528  -0.001   0.012   0.002   0.014 -10.998  -0.002
 -0.012  -0.001  -9.571   0.006   0.052  -0.014  -0.002 -11.050
 -0.001   0.012   0.006  -9.634   0.010  -0.001   0.014   0.008
 -0.001   0.002   0.052   0.010  -9.631  -0.001   0.003   0.061
-11.124   0.014  -0.014  -0.001  -0.001 -12.828   0.017  -0.016
  0.014 -10.998  -0.002   0.014   0.003   0.017 -12.678  -0.002
 -0.014  -0.002 -11.050   0.008   0.061  -0.016  -0.002 -12.741
 -0.001   0.014   0.008 -11.124   0.012  -0.002   0.017   0.009
 -0.001   0.003   0.061   0.012 -11.120  -0.001   0.003   0.072
 -0.007   0.002  -0.018  -0.007   0.031  -0.008   0.002  -0.021
 -0.011   0.003  -0.029  -0.011   0.050  -0.013   0.003  -0.034
  0.007  -0.001  -0.000   0.000   0.001   0.008  -0.001  -0.000
  0.000  -0.001  -0.001   0.007   0.001   0.000  -0.001  -0.001
  0.001   0.000  -0.001   0.001   0.002   0.001   0.000  -0.001
  0.010  -0.001  -0.000   0.000   0.002   0.011  -0.001  -0.000
  0.000  -0.001  -0.002   0.010   0.001   0.000  -0.001  -0.002
  0.001   0.000  -0.001   0.001   0.002   0.001   0.000  -0.001
 pseudopotential strength for first ion, spin component:           2
 -9.584   0.008  -0.023  -0.001  -0.008 -11.064   0.010  -0.027
  0.008  -9.508  -0.001   0.008   0.002   0.010 -10.974  -0.002
 -0.023  -0.001  -9.434   0.018   0.098  -0.027  -0.002 -10.886
 -0.001   0.008   0.018  -9.584   0.015  -0.001   0.010   0.022
 -0.008   0.002   0.098   0.015  -9.547  -0.010   0.003   0.117
-11.064   0.010  -0.027  -0.001  -0.010 -12.757   0.012  -0.032
  0.010 -10.974  -0.002   0.010   0.003   0.012 -12.651  -0.002
 -0.027  -0.002 -10.886   0.022   0.117  -0.032  -0.002 -12.545
 -0.001   0.010   0.022 -11.064   0.018  -0.001   0.012   0.026
 -0.010   0.003   0.117   0.018 -11.020  -0.012   0.003   0.139
 -0.019   0.001  -0.048  -0.019   0.083  -0.022   0.001  -0.056
 -0.032   0.002  -0.082  -0.032   0.142  -0.038   0.002  -0.095
  0.007  -0.001  -0.000   0.000   0.001   0.008  -0.001  -0.000
  0.000  -0.001  -0.001   0.007   0.001   0.000  -0.001  -0.001
  0.001   0.000  -0.001   0.001   0.002   0.001   0.000  -0.001
  0.010  -0.001  -0.000   0.001   0.002   0.011  -0.001  -0.000
  0.001  -0.001  -0.002   0.010   0.001   0.001  -0.001  -0.002
  0.001   0.001  -0.001   0.001   0.002   0.001   0.001  -0.001
 total augmentation occupancy for first ion, spin component:           1
  6.580   0.696   0.529   0.614  -0.607  -3.986  -0.509  -0.369  -0.442   0.467   0.087  -0.059  -0.588  -0.016  -0.302   0.054
  0.696  13.624  -0.291   0.696   0.505  -0.509  -9.125   0.212  -0.509  -0.368  -0.047   0.021   0.079   0.079  -0.024  -0.007
  0.529  -0.291   6.197   0.261  -2.765  -0.369   0.214  -3.899  -0.220   1.934   0.221  -0.151   0.073   0.183  -0.536  -0.004
  0.614   0.696   0.261   6.580  -0.762  -0.442  -0.509  -0.220  -3.986   0.553   0.087  -0.059  -0.016  -0.588  -0.302   0.002
 -0.607   0.505  -2.765  -0.762   9.390   0.467  -0.370   1.934   0.553  -6.133  -0.383   0.262  -0.253  -0.189   0.928   0.019
 -3.986  -0.509  -0.369  -0.442   0.467   2.460   0.373   0.195   0.318  -0.395  -0.045   0.035   0.373   0.012   0.208  -0.036
 -0.509  -9.125   0.214  -0.509  -0.370   0.373   6.215  -0.156   0.373   0.271   0.033  -0.014  -0.051  -0.051   0.016   0.005
 -0.369   0.212  -3.899  -0.220   1.934   0.195  -0.156   3.003   0.245  -1.084  -0.113   0.090  -0.051  -0.121   0.380   0.003
 -0.442  -0.509  -0.220  -3.986   0.553   0.318   0.373   0.245   2.460  -0.366  -0.045   0.035   0.012   0.373   0.208  -0.001
  0.467  -0.368   1.934   0.553  -6.133  -0.395   0.271  -1.084  -0.366   4.255   0.196  -0.155   0.169   0.129  -0.658  -0.013
  0.087  -0.047   0.221   0.087  -0.383  -0.045   0.033  -0.113  -0.045   0.196   2.342  -0.368  -0.000  -0.000   0.000  -0.001
 -0.059   0.021  -0.151  -0.059   0.262   0.035  -0.014   0.090   0.035  -0.155  -0.368   0.084  -0.002  -0.002   0.015   0.000
 -0.588   0.079   0.073  -0.016  -0.253   0.373  -0.051  -0.051   0.012   0.169  -0.000  -0.002   0.358  -0.008   0.005  -0.025
 -0.016   0.079   0.183  -0.588  -0.189   0.012  -0.051  -0.121   0.373   0.129  -0.000  -0.002  -0.008   0.358   0.005   0.001
 -0.302  -0.024  -0.536  -0.302   0.928   0.208   0.016   0.380   0.208  -0.658   0.000   0.015   0.005   0.005   0.307  -0.001
  0.054  -0.007  -0.004   0.002   0.019  -0.036   0.005   0.003  -0.001  -0.013  -0.001   0.000  -0.025   0.001  -0.001   0.002
  0.002  -0.007  -0.014   0.054   0.013  -0.001   0.005   0.010  -0.036  -0.010  -0.001   0.000   0.001  -0.025  -0.001  -0.000
  0.020   0.003   0.030   0.020  -0.052  -0.015  -0.002  -0.023  -0.015   0.040   0.006  -0.001  -0.001  -0.001  -0.019   0.000
 total augmentation occupancy for first ion, spin component:           2
 -0.032   0.005  -0.001  -0.010   0.013   0.071  -0.007   0.000   0.006  -0.008  -0.026   0.020   0.009  -0.000   0.003   0.001
  0.005  -0.004   0.003   0.005  -0.006  -0.007   0.024  -0.002  -0.007   0.004   0.001  -0.000  -0.001  -0.001   0.000  -0.000
 -0.001   0.003  -0.081  -0.011   0.012   0.000  -0.002   0.104   0.007  -0.006  -0.064   0.049  -0.001  -0.003   0.005  -0.000
 -0.010   0.005  -0.011  -0.032   0.007   0.006  -0.007   0.007   0.071  -0.004  -0.026   0.020  -0.000   0.009   0.003   0.000
  0.013  -0.006   0.012   0.007  -0.095  -0.009   0.004  -0.006  -0.004   0.111   0.111  -0.085   0.003   0.002  -0.009   0.000
  0.071  -0.007   0.000   0.006  -0.009  -0.082   0.007  -0.069  -0.003  -0.037   0.017  -0.012  -0.013   0.001  -0.003  -0.000
 -0.007   0.024  -0.002  -0.007   0.004   0.007  -0.029   0.001   0.007  -0.002  -0.001   0.000   0.001   0.001   0.000   0.000
  0.000  -0.002   0.104   0.007  -0.006  -0.069   0.001   0.423   0.066   0.303   0.043  -0.031   0.000   0.003  -0.004  -0.000
  0.006  -0.007   0.007   0.071  -0.004  -0.003   0.007   0.066  -0.082   0.042   0.017  -0.012   0.001  -0.013  -0.003  -0.000
 -0.008   0.004  -0.006  -0.004   0.111  -0.037  -0.002   0.303   0.042   0.074  -0.074   0.054  -0.004  -0.002   0.008  -0.000
 -0.026   0.001  -0.064  -0.026   0.111   0.017  -0.001   0.043   0.017  -0.074  -0.015   0.022  -0.002  -0.002   0.016   0.000
  0.020  -0.000   0.049   0.020  -0.085  -0.012   0.000  -0.031  -0.012   0.054   0.022  -0.010   0.001   0.001  -0.008  -0.000
  0.009  -0.001  -0.001  -0.000   0.003  -0.013   0.001   0.000   0.001  -0.004  -0.002   0.001   0.005  -0.000   0.001  -0.001
 -0.000  -0.001  -0.003   0.009   0.002   0.001   0.001   0.003  -0.013  -0.002  -0.002   0.001  -0.000   0.005   0.001   0.000
  0.003   0.000   0.005   0.003  -0.009  -0.003   0.000  -0.004  -0.003   0.008   0.016  -0.008   0.001   0.001   0.000  -0.000
  0.001  -0.000  -0.000   0.000   0.000  -0.000   0.000  -0.000  -0.000  -0.000   0.000  -0.000  -0.001   0.000  -0.000   0.000
  0.000  -0.000  -0.000   0.001   0.000  -0.000   0.000   0.000  -0.000   0.000   0.000  -0.000   0.000  -0.001  -0.000  -0.000
  0.000  -0.000   0.000   0.000  -0.000   0.000   0.000   0.000   0.000  -0.000  -0.001   0.000  -0.000  -0.000   0.000   0.000


------------------------ aborting loop because EDIFF is reached ----------------------------------------


    CHARGE:  cpu time    0.0881: real time    0.0881
    FORLOC:  cpu time    0.0019: real time    0.0019
    FORNL :  cpu time    0.0202: real time    0.0202
    STRESS:  cpu time    0.0595: real time    0.0595
    FORCOR:  cpu time    0.0646: real time    0.0646
    FORHAR:  cpu time    0.0087: real time    0.0087
    MIXING:  cpu time    0.0019: real time    0.0019
    OFIELD:  cpu time    0.0000: real time    0.0000

  FORCE on cell =-STRESS in cart. coord.  units (eV):
  Direction    XX          YY          ZZ          XY          YZ          ZX
  --------------------------------------------------------------------------------------
  Alpha Z     3.30829     3.30829     3.30829
  Ewald     120.16967   501.12234   501.12234    37.05672   -28.89176    37.05672
  Hartree   808.98284  1110.40749  1110.40749    28.23892   -21.29916    28.23892
  E(xc)    -155.36931  -156.27977  -156.27977    -0.10842    -0.01095    -0.10842
  Local   -1728.53110 -2425.95016 -2425.95016   -66.91468    51.09956   -66.91468
  n-local   403.39767   400.73050   400.73050    -0.33379    -0.41971    -0.33385
  augment   -93.79560   -92.93854   -92.93854     0.10582     0.06540     0.10587
  Kinetic   641.74052   659.49333   659.49333     1.96335    -0.58438     1.96335
  Fock        0.00000     0.00000     0.00000     0.00000     0.00000     0.00000
  -------------------------------------------------------------------------------------
  Total      -0.09702    -0.10651    -0.10651     0.00792    -0.04099     0.00792
  in kB      -0.04606    -0.05056    -0.05056     0.00376    -0.01946     0.00376
  external pressure =       -0.05 kB  Pullay stress =        0.00 kB


 VOLUME and BASIS-vectors are now :
 -----------------------------------------------------------------------------
  energy-cutoff  :      450.00
  volume of cell :     3375.00
      direct lattice vectors                 reciprocal lattice vectors
    15.000000000  0.000000000  0.000000000     0.066666667  0.000000000  0.000000000
     0.000000000 15.000000000  0.000000000     0.000000000  0.066666667  0.000000000
     0.000000000  0.000000000 15.000000000     0.000000000  0.000000000  0.066666667

  length of vectors
    15.000000000 15.000000000 15.000000000     0.066666667  0.066666667  0.066666667


 FORCES acting on ions
    electron-ion (+dipol)            ewald-force                    non-local-force                 convergence-correction
 -----------------------------------------------------------------------------------------------
   -.118E+02 0.112E+01 0.112E+01   0.104E+02 -.949E+00 -.949E+00   0.136E+01 -.148E+00 -.148E+00   -.415E-02 -.119E-01 -.119E-01
   0.626E+02 0.186E+03 -.200E+03   -.632E+02 -.187E+03 0.202E+03   0.595E+00 0.153E+01 -.166E+01   0.753E-02 -.103E-01 -.808E-02
   0.626E+02 -.200E+03 0.186E+03   -.632E+02 0.202E+03 -.187E+03   0.595E+00 -.166E+01 0.153E+01   0.753E-02 -.808E-02 -.103E-01
   -.280E+03 0.317E+02 0.317E+02   0.282E+03 -.319E+02 -.319E+02   -.113E+01 0.136E+00 0.136E+00   0.115E-01 -.395E-02 -.395E-02
   0.395E+02 -.196E+03 -.196E+03   -.399E+02 0.198E+03 0.198E+03   0.331E+00 -.181E+01 -.181E+01   -.160E-01 -.132E-01 -.132E-01
   0.125E+03 0.178E+03 0.178E+03   -.126E+03 -.179E+03 -.179E+03   0.110E+01 0.161E+01 0.161E+01   -.659E-02 0.458E-02 0.458E-02
 -----------------------------------------------------------------------------------------------
   -.286E+01 0.379E+00 0.379E+00   0.284E-13 -.284E-13 0.853E-13   0.285E+01 -.344E+00 -.344E+00   -.113E-03 -.428E-01 -.428E-01
 
 
 POSITION                                       TOTAL-FORCE (eV/Angst)
 -----------------------------------------------------------------------------------
      7.95678      8.11561      8.11561        -0.024637      0.015664      0.015664
      7.36267      6.61663      9.74745         0.018829     -0.007463      0.008843
      7.36267      9.74745      6.61663         0.018829      0.008843     -0.007463
     10.12838      7.87052      7.87052        -0.001020      0.006900      0.006900
      7.56212      9.70985      9.70985        -0.006696     -0.025991     -0.025991
      6.87739      6.68994      6.68994        -0.005305      0.002047      0.002047
 -----------------------------------------------------------------------------------
    total drift:                               -0.010116     -0.007310     -0.007310


--------------------------------------------------------------------------------------------------------



  FREE ENERGIE OF THE ION-ELECTRON SYSTEM (eV)
  ---------------------------------------------------
  free  energy   TOTEN  =       -26.80634337 eV

  energy  without entropy=      -26.83052852  energy(sigma->0) =      -26.81238966
 
 d Force =-0.6119343E-04[-0.147E-03, 0.250E-04]  d Energy =-0.1105776E-03 0.494E-04
 d Force = 0.3481063E-01[ 0.351E-01, 0.345E-01]  d Ewald  = 0.3481063E-01 0.573E-08


--------------------------------------------------------------------------------------------------------


    POTLOK:  cpu time    0.0702: real time    0.0702


--------------------------------------------------------------------------------------------------------


