 vasp.5.4.1 05Feb16 (build Mar 19 2020 08:54:17) complex                        
  
 executed on           IFC91_ompi date 2022.03.14  17:45:46
 running on   96 total cores
 distrk:  each k-point on   96 cores,    1 groups
 distr:  one band on NCORES_PER_BAND=  24 cores,    4 groups


--------------------------------------------------------------------------------------------------------


 INCAR:
 POTCAR:    PAW_PBE W 08Apr2002                   
 POTCAR:    PAW_PBE Cl 06Sep2000                  

 ----------------------------------------------------------------------------- 
|                                                                             |
|           W    W    AA    RRRRR   N    N  II  N    N   GGGG   !!!           |
|           W    W   A  A   R    R  NN   N  II  NN   N  G    G  !!!           |
|           W    W  A    A  R    R  N N  N  II  N N  N  G       !!!           |
|           W WW W  AAAAAA  RRRRR   N  N N  II  N  N N  G  GGG   !            |
|           WW  WW  A    A  R   R   N   NN  II  N   NN  G    G                |
|           W    W  A    A  R    R  N    N  II  N    N   GGGG   !!!           |
|                                                                             |
|      For optimal performance we recommend to set                            |
|        NCORE= 4 - approx SQRT( number of cores)                             |
|      NCORE specifies how many cores store one orbital (NPAR=cpu/NCORE).     |
|      This setting can  greatly improve the performance of VASP for DFT.     |
|      The default, NPAR=number of cores might be grossly inefficient         |
|      on modern multi-core architectures or massively parallel machines.     |
|      Do your own testing !!!!                                               |
|      Unfortunately you need to use the default for GW and RPA calculations. |
|      (for HF NCORE is supported but not extensively tested yet)             |
|                                                                             |
 ----------------------------------------------------------------------------- 

 POTCAR:    PAW_PBE W 08Apr2002                   
   VRHFIN =W : 6s5d                                                             
   LEXCH  = PE                                                                  
   EATOM  =   204.6103 eV,   15.0384 Ry                                         
                                                                                
   TITEL  = PAW_PBE W 08Apr2002                                                 
   LULTRA =        F    use ultrasoft PP ?                                      
   IUNSCR =        1    unscreen: 0-lin 1-nonlin 2-no                           
   RPACOR =    2.330    partial core radius                                     
   POMASS =  183.850; ZVAL   =    6.000    mass and valenz                      
   RCORE  =    2.750    outmost cutoff radius                                   
   RWIGS  =    2.750; RWIGS  =    1.455    wigner-seitz radius (au A)           
   ENMAX  =  223.057; ENMIN  =  167.293 eV                                      
   RCLOC  =    2.147    cutoff for local pot                                    
   LCOR   =        T    correct aug charges                                     
   LPAW   =        T    paw PP                                                  
   EAUG   =  373.438                                                            
   DEXC   =    0.000                                                            
   RMAX   =    2.801    core radius for proj-oper                               
   RAUG   =    1.300    factor for augmentation sphere                          
   RDEP   =    2.886    radius for radial grids                                 
   RDEPT  =    2.230    core radius for aug-charge                              
                                                                                
   Atomic configuration                                                         
   16 entries                                                                   
     n  l   j            E        occ.                                          
     1  0  0.50    -69465.5836   2.0000                                         
     2  0  0.50    -11986.2642   2.0000                                         
     2  1  1.50    -10479.8616   6.0000                                         
     3  0  0.50     -2759.0758   2.0000                                         
     3  1  1.50     -2313.1857   6.0000                                         
     3  2  2.50     -1801.1185  10.0000                                         
     4  0  0.50      -567.6791   2.0000                                         
     4  1  1.50      -421.4694   6.0000                                         
     4  2  2.50      -236.3473  10.0000                                         
     4  3  3.50       -31.2666  14.0000                                         
     5  0  0.50       -77.1085   2.0000                                         
     5  1  1.50       -41.3856   6.0000                                         
     5  2  2.50        -3.3185   5.0000                                         
     6  0  0.50        -5.1438   1.0000                                         
     6  1  0.50        -3.8096   0.0000                                         
     5  3  2.50        -1.3606   0.0000                                         
   Description                                                                  
     l       E           TYP  RCUT    TYP  RCUT                                 
     2     -3.3185288     23  2.500                                             
     2     -1.5965414     23  2.500                                             
     0     -5.1438054     23  2.500                                             
     0      4.9117504     23  2.500                                             
     1      2.7211652     23  2.750                                             
     1     27.2116520     23  2.750                                             
  local pseudopotential read in
  partial core-charges read in
  partial kinetic energy density read in
  atomic valenz-charges read in
  non local Contribution for L=           2  read in
    real space projection operators read in
  non local Contribution for L=           2  read in
    real space projection operators read in
  non local Contribution for L=           0  read in
    real space projection operators read in
  non local Contribution for L=           0  read in
    real space projection operators read in
  non local Contribution for L=           1  read in
    real space projection operators read in
  non local Contribution for L=           1  read in
    real space projection operators read in
    PAW grid and wavefunctions read in
 
   number of l-projection  operators is LMAX  =           6
   number of lm-projection operators is LMMAX =          18
 
 POTCAR:    PAW_PBE Cl 06Sep2000                  
   VRHFIN =Cl: s2p5                                                             
   LEXCH  = PE                                                                  
   EATOM  =   409.7259 eV,   30.1140 Ry                                         
                                                                                
   TITEL  = PAW_PBE Cl 06Sep2000                                                
   LULTRA =        F    use ultrasoft PP ?                                      
   IUNSCR =        1    unscreen: 0-lin 1-nonlin 2-no                           
   RPACOR =    1.500    partial core radius                                     
   POMASS =   35.453; ZVAL   =    7.000    mass and valenz                      
   RCORE  =    1.900    outmost cutoff radius                                   
   RWIGS  =    2.100; RWIGS  =    1.111    wigner-seitz radius (au A)           
   ENMAX  =  262.472; ENMIN  =  196.854 eV                                      
   ICORE  =        2    local potential                                         
   LCOR   =        T    correct aug charges                                     
   LPAW   =        T    paw PP                                                  
   EAUG   =  356.192                                                            
   DEXC   =    0.000                                                            
   RMAX   =    1.945    core radius for proj-oper                               
   RAUG   =    1.300    factor for augmentation sphere                          
   RDEP   =    2.020    radius for radial grids                                 
   RDEPT  =    1.678    core radius for aug-charge                              
                                                                                
   Atomic configuration                                                         
    6 entries                                                                   
     n  l   j            E        occ.                                          
     1  0  0.50     -2751.1850   2.0000                                         
     2  0  0.50      -252.6861   2.0000                                         
     2  1  1.50      -191.6157   6.0000                                         
     3  0  0.50       -20.6916   2.0000                                         
     3  1  0.50        -8.5949   5.0000                                         
     3  2  1.50        -8.1635   0.0000                                         
   Description                                                                  
     l       E           TYP  RCUT    TYP  RCUT                                 
     0    -20.6915656     23  1.900                                             
     0    -22.0521482     23  1.900                                             
     1     -8.5948577     23  1.900                                             
     1     -5.3847331     23  1.900                                             
     2     -8.1634956     23  1.900                                             
  local pseudopotential read in
  partial core-charges read in
  partial kinetic energy density read in
  atomic valenz-charges read in
  non local Contribution for L=           0  read in
    real space projection operators read in
  non local Contribution for L=           0  read in
    real space projection operators read in
  non local Contribution for L=           1  read in
    real space projection operators read in
  non local Contribution for L=           1  read in
    real space projection operators read in
    PAW grid and wavefunctions read in
 
   number of l-projection  operators is LMAX  =           4
   number of lm-projection operators is LMMAX =           8
 

 ----------------------------------------------------------------------------- 
|                                                                             |
|  ADVICE TO THIS USER RUNNING 'VASP/VAMP'   (HEAR YOUR MASTER'S VOICE ...):  |
|                                                                             |
|      You have a (more or less) 'small supercell' and for smaller cells      |
|      it is recommended  to use the reciprocal-space projection scheme!      |
|      The real space optimization is not  efficient for small cells and it   |
|      is also less accurate ...                                              |
|      Therefore set LREAL=.FALSE. in the  INCAR file                         |
|                                                                             |
 ----------------------------------------------------------------------------- 

 Optimization of the real space projectors (new method)

 maximal supplied QI-value         = 13.61
 optimisation between [QCUT,QGAM] = [ 10.75, 21.63] = [ 32.35,131.06] Ry 
 Optimized for a Real-space Cutoff    1.65 Angstroem

   l    n(q)    QCUT    max X(q) W(low)/X(q) W(high)/X(q)  e(spline) 
   2     10    10.749   130.855    0.24E-03    0.22E-03    0.39E-06
   2     10    10.749   114.007    0.24E-03    0.22E-03    0.39E-06
   0     11    10.749    84.709    0.32E-04    0.10E-04    0.34E-06
   0     11    10.749    49.163    0.26E-04    0.89E-05    0.31E-06
   1     10    10.749    15.765    0.14E-03    0.94E-05    0.22E-06
   1     10    10.749    10.638    0.10E-03    0.52E-05    0.16E-06
 Optimization of the real space projectors (new method)

 maximal supplied QI-value         = 19.84
 optimisation between [QCUT,QGAM] = [ 10.71, 21.63] = [ 32.15,130.99] Ry 
 Optimized for a Real-space Cutoff    1.19 Angstroem

   l    n(q)    QCUT    max X(q) W(low)/X(q) W(high)/X(q)  e(spline) 
   0      8    10.715   168.010    0.38E-03    0.52E-04    0.59E-07
   0      8    10.715   164.674    0.37E-03    0.50E-04    0.57E-07
   1      7    10.715    69.222    0.20E-03    0.59E-03    0.70E-07
   1      7    10.715    56.786    0.19E-03    0.58E-03    0.68E-07
  PAW_PBE W 08Apr2002                   :
 energy of atom  1       EATOM= -204.6103
 kinetic energy error for atom=    0.0022 (will be added to EATOM!!)
  PAW_PBE Cl 06Sep2000                  :
 energy of atom  2       EATOM= -409.7259
 kinetic energy error for atom=    0.0057 (will be added to EATOM!!)
 
 
 POSCAR: W Cell                                  
  positions in direct lattice
  velocities in cartesian coordinates
 exchange correlation table for  LEXCH =        8
   RHO(1)=    0.500       N(1)  =     2000
   RHO(2)=  100.500       N(2)  =     4000
 


--------------------------------------------------------------------------------------------------------


 ion  position               nearest neighbor table
   1  0.530  0.560  0.560-   4 2.28   5 2.28   2 2.28   3 2.28
   2  0.464  0.438  0.621-   1 2.28
   3  0.464  0.621  0.438-   1 2.28
   4  0.667  0.514  0.514-   1 2.28
   5  0.526  0.667  0.667-   1 2.28
 
  LATTYP: Found a simple cubic cell.
 ALAT       =    15.0000000000
  
  Lattice vectors:
  
 A1 = (  15.0000000000,   0.0000000000,   0.0000000000)
 A2 = (   0.0000000000,  15.0000000000,   0.0000000000)
 A3 = (   0.0000000000,   0.0000000000,  15.0000000000)


Analysis of symmetry for initial positions (statically):
=====================================================================
 Subroutine PRICEL returns:
 Original cell was already a primitive cell.
 

 Routine SETGRP: Setting up the symmetry group for a 
 simple cubic supercell.


 Subroutine GETGRP returns: Found  2 space group operations
 (whereof  2 operations were pure point group operations)
 out of a pool of 48 trial point group operations.


The static configuration has the point symmetry C_1h.


Analysis of symmetry for dynamics (positions and initial velocities):
=====================================================================
 Subroutine PRICEL returns:
 Original cell was already a primitive cell.
 

 Routine SETGRP: Setting up the symmetry group for a 
 simple cubic supercell.


 Subroutine GETGRP returns: Found  2 space group operations
 (whereof  2 operations were pure point group operations)
 out of a pool of 48 trial point group operations.


The dynamic configuration has the point symmetry C_1h.


Analysis of structural, dynamic, and magnetic symmetry:
=====================================================================
 Subroutine PRICEL returns:
 Original cell was already a primitive cell.
 

 Routine SETGRP: Setting up the symmetry group for a 
 simple cubic supercell.


 Subroutine GETGRP returns: Found  2 space group operations
 (whereof  2 operations were pure point group operations)
 out of a pool of 48 trial point group operations.


The magnetic configuration has the point symmetry C_1h.


 Subroutine INISYM returns: Found  2 space group operations
 (whereof  2 operations are pure point group operations),
 and found     1 'primitive' translations

 
 
 KPOINTS: k-points                                

Automatic generation of k-mesh.
Space group operators:
 irot       det(A)        alpha          n_x          n_y          n_z        tau_x        tau_y        tau_z
    1     1.000000     0.000000     1.000000     0.000000     0.000000     0.000000     0.000000     0.000000
    2    -1.000000   180.000000     0.000000    -0.707107     0.707107     0.000000     0.000000     0.000000
 
 Subroutine IBZKPT returns following result:
 ===========================================
 
 Found      1 irreducible k-points:
 
 Following reciprocal coordinates:
            Coordinates               Weight
  0.000000  0.000000  0.000000      1.000000
 
 Following cartesian coordinates:
            Coordinates               Weight
  0.000000  0.000000  0.000000      1.000000
 


--------------------------------------------------------------------------------------------------------




 Dimension of arrays:
   k-points           NKPTS =      1   k-points in BZ     NKDIM =      1   number of bands    NBANDS=     24
   number of dos      NEDOS =    301   number of ions     NIONS =      5
   non local maximal  LDIM  =      6   non local SUM 2l+1 LMDIM =     18
   total plane-waves  NPLWV = 512000
   max r-space proj   IRMAX =   2898   max aug-charges    IRDMAX=   8858
   dimension x,y,z NGX =    80 NGY =   80 NGZ =   80
   dimension x,y,z NGXF=   160 NGYF=  160 NGZF=  160
   support grid    NGXF=   160 NGYF=  160 NGZF=  160
   ions per type =               1   4
 NGX,Y,Z   is equivalent  to a cutoff of   8.87,  8.87,  8.87 a.u.
 NGXF,Y,Z  is equivalent  to a cutoff of  17.73, 17.73, 17.73 a.u.


 I would recommend the setting:
   dimension x,y,z NGX =    78 NGY =   78 NGZ =   78
 SYSTEM =  clean (100) surface                     
 POSCAR =  W Cell                                  

 Startparameter for this run:
   NWRITE =      2    write-flag & timer
   PREC   = normal    normal or accurate (medium, high low for compatibility)
   ISTART =      0    job   : 0-new  1-cont  2-samecut
   ICHARG =      2    charge: 1-file 2-atom 10-const
   ISPIN  =      2    spin polarized calculation?
   LNONCOLLINEAR =      F non collinear calculations
   LSORBIT =      F    spin-orbit coupling
   INIWAV =      1    electr: 0-lowe 1-rand  2-diag
   LASPH  =      F    aspherical Exc in radial PAW
   METAGGA=      F    non-selfconsistent MetaGGA calc.

 Electronic Relaxation 1
   ENCUT  =  450.0 eV  33.07 Ry    5.75 a.u.  25.95 25.95 25.95*2*pi/ulx,y,z
   ENINI  =  450.0     initial cutoff
   ENAUG  =  373.4 eV  augmentation charge cutoff
   NELM   =     60;   NELMIN=  2; NELMDL= -5     # of ELM steps 
   EDIFF  = 0.1E-05   stopping-criterion for ELM
   LREAL  =      T    real-space projection
   NLSPLINE    = F    spline interpolate recip. space projectors
   LCOMPAT=      F    compatible to vasp.4.4
   GGA_COMPAT  = T    GGA compatible to vasp.4.4-vasp.4.6
   LMAXPAW     = -100 max onsite density
   LMAXMIX     =    2 max onsite mixed and CHGCAR
   VOSKOWN=      0    Vosko Wilk Nusair interpolation
   ROPT   =   -0.00050  -0.00050
 Ionic relaxation
   EDIFFG = -.1E-01   stopping-criterion for IOM
   NSW    =    250    number of steps for IOM
   NBLOCK =      1;   KBLOCK =    250    inner block; outer block 
   IBRION =      2    ionic relax: 0-MD 1-quasi-New 2-CG
   NFREE  =      1    steps in history (QN), initial steepest desc. (CG)
   ISIF   =      2    stress and relaxation
   IWAVPR =     11    prediction:  0-non 1-charg 2-wave 3-comb
   ISYM   =      2    0-nonsym 1-usesym 2-fastsym
   LCORR  =      T    Harris-Foulkes like correction to forces

   POTIM  = 0.1000    time-step for ionic-motion
   TEIN   =    0.0    initial temperature
   TEBEG  =    0.0;   TEEND  =   0.0 temperature during run
   SMASS  =  -3.00    Nose mass-parameter (am)
   estimated Nose-frequenzy (Omega)   =  0.10E-29 period in steps =****** mass=  -0.514E-26a.u.
   SCALEE = 1.0000    scale energy and forces
   NPACO  =    256;   APACO  = 16.0  distance and # of slots for P.C.
   PSTRESS=    0.0 pullay stress

  Mass of Ions in am
   POMASS = 183.85 35.45
  Ionic Valenz
   ZVAL   =   6.00  7.00
  Atomic Wigner-Seitz radii
   RWIGS  =  -1.00 -1.00
  virtual crystal weights 
   VCA    =   1.00  1.00
   NELECT =      34.0000    total number of electrons
   NUPDOWN=      -1.0000    fix difference up-down

 DOS related values:
   EMIN   =  10.00;   EMAX   =-10.00  energy-range for DOS
   EFERMI =   0.00
   ISMEAR =     2;   SIGMA  =   0.20  broadening in eV -4-tet -1-fermi 0-gaus

 Electronic relaxation 2 (details)
   IALGO  =     68    algorithm
   LDIAG  =      T    sub-space diagonalisation (order eigenvalues)
   LSUBROT=      F    optimize rotation matrix (better conditioning)
   TURBO    =      0    0=normal 1=particle mesh
   IRESTART =      0    0=no restart 2=restart with 2 vectors
   NREBOOT  =      0    no. of reboots
   NMIN     =      0    reboot dimension
   EREF     =   0.00    reference energy to select bands
   IMIX   =      4    mixing-type and parameters
     AMIX     =   0.40;   BMIX     =  1.00
     AMIX_MAG =   1.60;   BMIX_MAG =  1.00
     AMIN     =   0.10
     WC   =   100.;   INIMIX=   1;  MIXPRE=   1;  MAXMIX= -45

 Intra band minimization:
   WEIMIN = 0.0010     energy-eigenvalue tresh-hold
   EBREAK =  0.10E-07  absolut break condition
   DEPER  =   0.30     relativ break condition  

   TIME   =   0.40     timestep for ELM

  volume/ion in A,a.u.               =     675.00      4555.12
  Fermi-wavevector in a.u.,A,eV,Ry     =   0.353571  0.668152  1.700897  0.125012
  Thomas-Fermi vector in A             =   1.267921
 
 Write flags
   LWAVE  =      F    write WAVECAR
   LCHARG =      F    write CHGCAR
   LVTOT  =      F    write LOCPOT, total local potential
   LVHAR  =      F    write LOCPOT, Hartree potential only
   LELF   =      F    write electronic localiz. function (ELF)
   LORBIT =      0    0 simple, 1 ext, 2 COOP (PROOUT)


 Dipole corrections
   LMONO  =      F    monopole corrections only (constant potential shift)
   LDIPOL =      F    correct potential (dipole corrections)
   IDIPOL =      0    1-x, 2-y, 3-z, 4-all directions 
   EPSILON=  1.0000000 bulk dielectric constant

 Exchange correlation treatment:
   GGA     =    --    GGA type
   LEXCH   =     8    internal setting for exchange type
   VOSKOWN=      0    Vosko Wilk Nusair interpolation
   LHFCALC =     F    Hartree Fock is set to
   LHFONE  =     F    Hartree Fock one center treatment
   AEXX    =    0.0000 exact exchange contribution

 Linear response parameters
   LEPSILON=     F    determine dielectric tensor
   LRPA    =     F    only Hartree local field effects (RPA)
   LNABLA  =     F    use nabla operator in PAW spheres
   LVEL    =     F    velocity operator in full k-point grid
   LINTERFAST=   F  fast interpolation
   KINTER  =     0    interpolate to denser k-point grid
   CSHIFT  =0.1000    complex shift for real part using Kramers Kronig
   OMEGAMAX=  -1.0    maximum frequency
   DEG_THRESHOLD= 0.2000000E-02 threshold for treating states as degnerate
   RTIME   =    0.100 relaxation time in fs

 Orbital magnetization related:
   ORBITALMAG=     F  switch on orbital magnetization
   LCHIMAG   =     F  perturbation theory with respect to B field
   DQ        =  0.001000  dq finite difference perturbation B field



--------------------------------------------------------------------------------------------------------


 conjugate gradient relaxation of ions
 charge density and potential will be updated during run
 spin polarized calculation
 RMM-DIIS sequential band-by-band and
  variant of blocked Davidson during initial phase
 perform sub-space diagonalisation
    before iterative eigenvector-optimisation
 modified Broyden-mixing scheme, WC =      100.0
 initial mixing is a Kerker type mixing with AMIX =  0.4000 and BMIX =      1.0000
 Hartree-type preconditioning will be used
 using additional bands            7
 real space projection scheme for non local part
 use partial core corrections
 calculate Harris-corrections to forces 
   (improved forces if not selfconsistent)
 use gradient corrections 
 use of overlap-Matrix (Vanderbilt PP)
 Methfessel and Paxton  Order N= 2 SIGMA  =   0.20


--------------------------------------------------------------------------------------------------------


  energy-cutoff  :      450.00
  volume of cell :     3375.00
      direct lattice vectors                 reciprocal lattice vectors
    15.000000000  0.000000000  0.000000000     0.066666667  0.000000000  0.000000000
     0.000000000 15.000000000  0.000000000     0.000000000  0.066666667  0.000000000
     0.000000000  0.000000000 15.000000000     0.000000000  0.000000000  0.066666667

  length of vectors
    15.000000000 15.000000000 15.000000000     0.066666667  0.066666667  0.066666667


 
 k-points in units of 2pi/SCALE and weight: k-points                                
   0.00000000  0.00000000  0.00000000       1.000
 
 k-points in reciprocal lattice and weights: k-points                                
   0.00000000  0.00000000  0.00000000       1.000
 
 position of ions in fractional coordinates (direct lattice) 
   0.52976667  0.55997921  0.55997921
   0.46373593  0.43781228  0.62137643
   0.46373593  0.62137643  0.43781228
   0.66662696  0.51353060  0.51353060
   0.52613452  0.66730148  0.66730148
 
 position of ions in cartesian coordinates  (Angst):
   7.94650003  8.39968812  8.39968812
   6.95603889  6.56718423  9.32064642
   6.95603889  9.32064642  6.56718423
   9.99940433  7.70295905  7.70295905
   7.89201786 10.00952218 10.00952218
 


--------------------------------------------------------------------------------------------------------


 k-point  1 :   0.0000 0.0000 0.0000  plane waves:   72935

 maximum and minimum number of plane-waves per node :      3049     3028

 maximum number of plane-waves:     72935
 maximum index in each direction: 
   IXMAX=   25   IYMAX=   25   IZMAX=   25
   IXMIN=  -25   IYMIN=  -25   IZMIN=  -25

 WARNING: aliasing errors must be expected set NGX to 102 to avoid them
 WARNING: aliasing errors must be expected set NGY to 102 to avoid them
 WARNING: aliasing errors must be expected set NGZ to 102 to avoid them
 aliasing errors are usually negligible using standard VASP settings
 and one can safely disregard these warnings

 real space projection operators:
  total allocation   :        650.89 KBytes
  max/ min on nodes  :         50.59          7.31


 parallel 3D FFT for wavefunctions:
    minimum data exchange during FFTs selected (reduces bandwidth)
 parallel 3D FFT for charge:
    minimum data exchange during FFTs selected (reduces bandwidth)


 total amount of memory used by VASP on root node    39554. kBytes
========================================================================

   base      :      30000. kBytes
   nonlr-proj:        272. kBytes
   fftplans  :       2467. kBytes
   grid      :       6195. kBytes
   one-center:         31. kBytes
   wavefun   :        589. kBytes
 
     INWAV:  cpu time    0.0000: real time    0.0000
 Broyden mixing: mesh for mixing (old mesh)
   NGX = 51   NGY = 51   NGZ = 51
  (NGX  =160   NGY  =160   NGZ  =160)
  gives a total of 132651 points

 initial charge density was supplied:
 charge density of overlapping atoms calculated
 number of electron      34.0000000 magnetization       5.0000000
 keeping initial charge density in first step


--------------------------------------------------------------------------------------------------------


 Maximum index for non-local projection operator          139
 Maximum index for augmentation-charges          106 (set IRDMAX)


--------------------------------------------------------------------------------------------------------


 First call to EWALD:  gamma=   0.118
 Maximum number of real-space cells 3x 3x 3
 Maximum number of reciprocal cells 3x 3x 3

 FEWALD executed in parallel
    FEWALD:  cpu time    0.0025: real time    0.0032


----------------------------------------- Iteration    1(   1)  ---------------------------------------


    POTLOK:  cpu time    0.0867: real time    0.0919
    SETDIJ:  cpu time    0.0102: real time    0.0118
     EDDAV:  cpu time    0.1711: real time    0.2089
       DOS:  cpu time    0.0052: real time    0.0060
    --------------------------------------------
      LOOP:  cpu time    0.2775: real time    0.3255

 eigenvalue-minimisations  :   128
 total energy-change (2. order) : 0.2400692E+03  (-0.6785087E+03)
 number of electron      34.0000000 magnetization       5.0000000
 augmentation part       34.0000000 magnetization       5.0000000

 Free energy of the ion-electron system (eV)
  ---------------------------------------------------
  alpha Z        PSCENC =         2.43951509
  Ewald energy   TEWEN  =       671.96600675
  -Hartree energ DENC   =     -2224.63150167
  -exchange      EXHF   =         0.00000000
  -V(xc)+E(xc)   XCENC  =        30.64688242
  PAW double counting   =      1542.54883541    -1483.85355561
  entropy T*S    EENTRO =         0.00436163
  eigenvalues    EBANDS =      -142.54015510
  atomic energy  EATOM  =      1843.48882543
  Solvation  Ediel_sol  =         0.00000000
  ---------------------------------------------------
  free energy    TOTEN  =       240.06921436 eV

  energy without entropy =      240.06485273  energy(sigma->0) =      240.06812395


--------------------------------------------------------------------------------------------------------




----------------------------------------- Iteration    1(   2)  ---------------------------------------


     EDDAV:  cpu time    0.1381: real time    0.1381
       DOS:  cpu time    0.0002: real time    0.0002
    --------------------------------------------
      LOOP:  cpu time    0.1405: real time    0.1424

 eigenvalue-minimisations  :   176
 total energy-change (2. order) :-0.1717630E+03  (-0.1652627E+03)
 number of electron      34.0000000 magnetization       5.0000000
 augmentation part       34.0000000 magnetization       5.0000000

 Free energy of the ion-electron system (eV)
  ---------------------------------------------------
  alpha Z        PSCENC =         2.43951509
  Ewald energy   TEWEN  =       671.96600675
  -Hartree energ DENC   =     -2224.63150167
  -exchange      EXHF   =         0.00000000
  -V(xc)+E(xc)   XCENC  =        30.64688242
  PAW double counting   =      1542.54883541    -1483.85355561
  entropy T*S    EENTRO =         0.00715475
  eigenvalues    EBANDS =      -314.30592603
  atomic energy  EATOM  =      1843.48882543
  Solvation  Ediel_sol  =         0.00000000
  ---------------------------------------------------
  free energy    TOTEN  =        68.30623655 eV

  energy without entropy =       68.29908180  energy(sigma->0) =       68.30444786


--------------------------------------------------------------------------------------------------------




----------------------------------------- Iteration    1(   3)  ---------------------------------------


     EDDAV:  cpu time    0.1075: real time    0.1075
       DOS:  cpu time    0.0002: real time    0.0002
    --------------------------------------------
      LOOP:  cpu time    0.1087: real time    0.1148

 eigenvalue-minimisations  :   128
 total energy-change (2. order) :-0.8049703E+02  (-0.7989887E+02)
 number of electron      34.0000000 magnetization       5.0000000
 augmentation part       34.0000000 magnetization       5.0000000

 Free energy of the ion-electron system (eV)
  ---------------------------------------------------
  alpha Z        PSCENC =         2.43951509
  Ewald energy   TEWEN  =       671.96600675
  -Hartree energ DENC   =     -2224.63150167
  -exchange      EXHF   =         0.00000000
  -V(xc)+E(xc)   XCENC  =        30.64688242
  PAW double counting   =      1542.54883541    -1483.85355561
  entropy T*S    EENTRO =         0.02848132
  eigenvalues    EBANDS =      -394.82428254
  atomic energy  EATOM  =      1843.48882543
  Solvation  Ediel_sol  =         0.00000000
  ---------------------------------------------------
  free energy    TOTEN  =       -12.19079339 eV

  energy without entropy =      -12.21927471  energy(sigma->0) =      -12.19791372


--------------------------------------------------------------------------------------------------------




----------------------------------------- Iteration    1(   4)  ---------------------------------------


     EDDAV:  cpu time    0.1043: real time    0.1043
       DOS:  cpu time    0.0002: real time    0.0002
    --------------------------------------------
      LOOP:  cpu time    0.1057: real time    0.1110

 eigenvalue-minimisations  :   128
 total energy-change (2. order) :-0.1200374E+02  (-0.1193824E+02)
 number of electron      34.0000000 magnetization       5.0000000
 augmentation part       34.0000000 magnetization       5.0000000

 Free energy of the ion-electron system (eV)
  ---------------------------------------------------
  alpha Z        PSCENC =         2.43951509
  Ewald energy   TEWEN  =       671.96600675
  -Hartree energ DENC   =     -2224.63150167
  -exchange      EXHF   =         0.00000000
  -V(xc)+E(xc)   XCENC  =        30.64688242
  PAW double counting   =      1542.54883541    -1483.85355561
  entropy T*S    EENTRO =         0.00859338
  eigenvalues    EBANDS =      -406.80813616
  atomic energy  EATOM  =      1843.48882543
  Solvation  Ediel_sol  =         0.00000000
  ---------------------------------------------------
  free energy    TOTEN  =       -24.19453495 eV

  energy without entropy =      -24.20312833  energy(sigma->0) =      -24.19668330


--------------------------------------------------------------------------------------------------------




----------------------------------------- Iteration    1(   5)  ---------------------------------------


     EDDAV:  cpu time    0.0980: real time    0.0980
       DOS:  cpu time    0.0002: real time    0.0002
    CHARGE:  cpu time    0.0948: real time    0.0970
    MIXING:  cpu time    0.0078: real time    0.0100
    --------------------------------------------
      LOOP:  cpu time    0.2021: real time    0.2076

 eigenvalue-minimisations  :   112
 total energy-change (2. order) :-0.2813233E+00  (-0.2801980E+00)
 number of electron      34.0000005 magnetization       4.2812351
 augmentation part       -3.3868834 magnetization       2.5648924

 Broyden mixing:
  rms(total) = 0.22644E+01    rms(broyden)= 0.22643E+01
  rms(prec ) = 0.23344E+01
  weight for this iteration     100.00

 Free energy of the ion-electron system (eV)
  ---------------------------------------------------
  alpha Z        PSCENC =         2.43951509
  Ewald energy   TEWEN  =       671.96600675
  -Hartree energ DENC   =     -2224.63150167
  -exchange      EXHF   =         0.00000000
  -V(xc)+E(xc)   XCENC  =        30.64688242
  PAW double counting   =      1542.54883541    -1483.85355561
  entropy T*S    EENTRO =         0.00795504
  eigenvalues    EBANDS =      -407.08882114
  atomic energy  EATOM  =      1843.48882543
  Solvation  Ediel_sol  =         0.00000000
  ---------------------------------------------------
  free energy    TOTEN  =       -24.47585828 eV

  energy without entropy =      -24.48381331  energy(sigma->0) =      -24.47784704


--------------------------------------------------------------------------------------------------------




----------------------------------------- Iteration    1(   6)  ---------------------------------------


    POTLOK:  cpu time    0.0657: real time    0.0657
    SETDIJ:  cpu time    0.0041: real time    0.0041
    EDDIAG:  cpu time    0.0245: real time    0.0249
  RMM-DIIS:  cpu time    0.0745: real time    0.0748
    ORTHCH:  cpu time    0.0042: real time    0.0042
       DOS:  cpu time    0.0002: real time    0.0002
    CHARGE:  cpu time    0.0898: real time    0.0898
    MIXING:  cpu time    0.0027: real time    0.0035
    --------------------------------------------
      LOOP:  cpu time    0.2671: real time    0.2750

 eigenvalue-minimisations  :    96
 total energy-change (2. order) : 0.5704296E+01  (-0.1232422E+01)
 number of electron      34.0000006 magnetization       3.5289544
 augmentation part       -3.1082046 magnetization       1.8955908

 Broyden mixing:
  rms(total) = 0.11321E+01    rms(broyden)= 0.11321E+01
  rms(prec ) = 0.11400E+01
  weight for this iteration     100.00

 eigenvalues of (default mixing * dielectric matrix)
  average eigenvalue GAMMA=   1.1723
  1.1723

 Free energy of the ion-electron system (eV)
  ---------------------------------------------------
  alpha Z        PSCENC =         2.43951509
  Ewald energy   TEWEN  =       671.96600675
  -Hartree energ DENC   =     -2232.12128403
  -exchange      EXHF   =         0.00000000
  -V(xc)+E(xc)   XCENC  =        36.21107707
  PAW double counting   =      1857.07850171    -1799.52133210
  entropy T*S    EENTRO =         0.00649375
  eigenvalues    EBANDS =      -398.31936585
  atomic energy  EATOM  =      1843.48882543
  Solvation  Ediel_sol  =         0.00000000
  ---------------------------------------------------
  free energy    TOTEN  =       -18.77156217 eV

  energy without entropy =      -18.77805592  energy(sigma->0) =      -18.77318561


--------------------------------------------------------------------------------------------------------




----------------------------------------- Iteration    1(   7)  ---------------------------------------


    POTLOK:  cpu time    0.0650: real time    0.0650
    SETDIJ:  cpu time    0.0036: real time    0.0036
    EDDIAG:  cpu time    0.0190: real time    0.0190
  RMM-DIIS:  cpu time    0.0502: real time    0.0502
    ORTHCH:  cpu time    0.0042: real time    0.0042
       DOS:  cpu time    0.0002: real time    0.0002
    CHARGE:  cpu time    0.0818: real time    0.0818
    MIXING:  cpu time    0.0020: real time    0.0023
    --------------------------------------------
      LOOP:  cpu time    0.2273: real time    0.2339

 eigenvalue-minimisations  :    96
 total energy-change (2. order) :-0.1957436E+01  (-0.1463118E+00)
 number of electron      34.0000007 magnetization       2.9377404
 augmentation part       -3.0583523 magnetization       1.3055558

 Broyden mixing:
  rms(total) = 0.47328E+00    rms(broyden)= 0.47328E+00
  rms(prec ) = 0.47802E+00
  weight for this iteration     100.00

 eigenvalues of (default mixing * dielectric matrix)
  average eigenvalue GAMMA=   1.3448
  0.7914  1.8981

 Free energy of the ion-electron system (eV)
  ---------------------------------------------------
  alpha Z        PSCENC =         2.43951509
  Ewald energy   TEWEN  =       671.96600675
  -Hartree energ DENC   =     -2237.03569530
  -exchange      EXHF   =         0.00000000
  -V(xc)+E(xc)   XCENC  =        34.78696218
  PAW double counting   =      2248.62278087    -2191.45258270
  entropy T*S    EENTRO =         0.00924937
  eigenvalues    EBANDS =      -393.55406025
  atomic energy  EATOM  =      1843.48882543
  Solvation  Ediel_sol  =         0.00000000
  ---------------------------------------------------
  free energy    TOTEN  =       -20.72899855 eV

  energy without entropy =      -20.73824793  energy(sigma->0) =      -20.73131090


--------------------------------------------------------------------------------------------------------




----------------------------------------- Iteration    1(   8)  ---------------------------------------


    POTLOK:  cpu time    0.0651: real time    0.0651
    SETDIJ:  cpu time    0.0036: real time    0.0036
    EDDIAG:  cpu time    0.0187: real time    0.0187
  RMM-DIIS:  cpu time    0.0497: real time    0.0497
    ORTHCH:  cpu time    0.0043: real time    0.0043
       DOS:  cpu time    0.0002: real time    0.0002
    CHARGE:  cpu time    0.0815: real time    0.0815
    MIXING:  cpu time    0.0020: real time    0.0020
    --------------------------------------------
      LOOP:  cpu time    0.2263: real time    0.2326

 eigenvalue-minimisations  :    96
 total energy-change (2. order) :-0.1601623E+01  (-0.6699587E-01)
 number of electron      34.0000007 magnetization       2.6691298
 augmentation part       -3.0945744 magnetization       1.0388712

 Broyden mixing:
  rms(total) = 0.17457E+00    rms(broyden)= 0.17457E+00
  rms(prec ) = 0.18142E+00
  weight for this iteration     100.00

 eigenvalues of (default mixing * dielectric matrix)
  average eigenvalue GAMMA=   1.2807
  2.2574  0.9184  0.6663

 Free energy of the ion-electron system (eV)
  ---------------------------------------------------
  alpha Z        PSCENC =         2.43951509
  Ewald energy   TEWEN  =       671.96600675
  -Hartree energ DENC   =     -2238.89207596
  -exchange      EXHF   =         0.00000000
  -V(xc)+E(xc)   XCENC  =        33.78767299
  PAW double counting   =      2478.39338058    -2421.39568853
  entropy T*S    EENTRO =         0.00478407
  eigenvalues    EBANDS =      -392.12304176
  atomic energy  EATOM  =      1843.48882543
  Solvation  Ediel_sol  =         0.00000000
  ---------------------------------------------------
  free energy    TOTEN  =       -22.33062132 eV

  energy without entropy =      -22.33540540  energy(sigma->0) =      -22.33181734


--------------------------------------------------------------------------------------------------------




----------------------------------------- Iteration    1(   9)  ---------------------------------------


    POTLOK:  cpu time    0.0649: real time    0.0649
    SETDIJ:  cpu time    0.0036: real time    0.0036
    EDDIAG:  cpu time    0.0187: real time    0.0187
  RMM-DIIS:  cpu time    0.0551: real time    0.0551
    ORTHCH:  cpu time    0.0043: real time    0.0043
       DOS:  cpu time    0.0002: real time    0.0002
    CHARGE:  cpu time    0.0811: real time    0.0811
    MIXING:  cpu time    0.0021: real time    0.0021
    --------------------------------------------
      LOOP:  cpu time    0.2313: real time    0.2376

 eigenvalue-minimisations  :    98
 total energy-change (2. order) :-0.4132398E+00  (-0.1053459E-01)
 number of electron      34.0000007 magnetization       2.5023930
 augmentation part       -3.0763531 magnetization       0.8725183

 Broyden mixing:
  rms(total) = 0.46296E-01    rms(broyden)= 0.46296E-01
  rms(prec ) = 0.51556E-01
  weight for this iteration     100.00

 eigenvalues of (default mixing * dielectric matrix)
  average eigenvalue GAMMA=   1.2031
  2.3378  1.0564  0.7637  0.6544

 Free energy of the ion-electron system (eV)
  ---------------------------------------------------
  alpha Z        PSCENC =         2.43951509
  Ewald energy   TEWEN  =       671.96600675
  -Hartree energ DENC   =     -2239.09052672
  -exchange      EXHF   =         0.00000000
  -V(xc)+E(xc)   XCENC  =        33.44424614
  PAW double counting   =      2533.89663800    -2476.96635046
  entropy T*S    EENTRO =         0.00589073
  eigenvalues    EBANDS =      -391.92810605
  atomic energy  EATOM  =      1843.48882543
  Solvation  Ediel_sol  =         0.00000000
  ---------------------------------------------------
  free energy    TOTEN  =       -22.74386109 eV

  energy without entropy =      -22.74975181  energy(sigma->0) =      -22.74533377


--------------------------------------------------------------------------------------------------------




----------------------------------------- Iteration    1(  10)  ---------------------------------------


    POTLOK:  cpu time    0.0648: real time    0.0648
    SETDIJ:  cpu time    0.0036: real time    0.0036
    EDDIAG:  cpu time    0.0186: real time    0.0186
  RMM-DIIS:  cpu time    0.0505: real time    0.0505
    ORTHCH:  cpu time    0.0044: real time    0.0044
       DOS:  cpu time    0.0002: real time    0.0002
    CHARGE:  cpu time    0.0825: real time    0.0826
    MIXING:  cpu time    0.0023: real time    0.0023
    --------------------------------------------
      LOOP:  cpu time    0.2281: real time    0.2344

 eigenvalue-minimisations  :    96
 total energy-change (2. order) :-0.2448565E+00  (-0.3445577E-02)
 number of electron      34.0000007 magnetization       2.2838432
 augmentation part       -3.0718653 magnetization       0.6520395

 Broyden mixing:
  rms(total) = 0.28710E-01    rms(broyden)= 0.28710E-01
  rms(prec ) = 0.31125E-01
  weight for this iteration     100.00

 eigenvalues of (default mixing * dielectric matrix)
  average eigenvalue GAMMA=   1.2875
  2.4042  1.7346  0.9036  0.7646  0.6308

 Free energy of the ion-electron system (eV)
  ---------------------------------------------------
  alpha Z        PSCENC =         2.43951509
  Ewald energy   TEWEN  =       671.96600675
  -Hartree energ DENC   =     -2238.44179347
  -exchange      EXHF   =         0.00000000
  -V(xc)+E(xc)   XCENC  =        33.20483278
  PAW double counting   =      2535.87413808    -2478.94271080
  entropy T*S    EENTRO =         0.00560048
  eigenvalues    EBANDS =      -392.58313193
  atomic energy  EATOM  =      1843.48882543
  Solvation  Ediel_sol  =         0.00000000
  ---------------------------------------------------
  free energy    TOTEN  =       -22.98871757 eV

  energy without entropy =      -22.99431806  energy(sigma->0) =      -22.99011769


--------------------------------------------------------------------------------------------------------




----------------------------------------- Iteration    1(  11)  ---------------------------------------


    POTLOK:  cpu time    0.0653: real time    0.0653
    SETDIJ:  cpu time    0.0036: real time    0.0036
    EDDIAG:  cpu time    0.0187: real time    0.0187
  RMM-DIIS:  cpu time    0.0496: real time    0.0496
    ORTHCH:  cpu time    0.0043: real time    0.0043
       DOS:  cpu time    0.0002: real time    0.0002
    CHARGE:  cpu time    0.0852: real time    0.0852
    MIXING:  cpu time    0.0023: real time    0.0024
    --------------------------------------------
      LOOP:  cpu time    0.2306: real time    0.2372

 eigenvalue-minimisations  :    96
 total energy-change (2. order) :-0.2949728E+00  (-0.4168289E-02)
 number of electron      34.0000007 magnetization       2.2135953
 augmentation part       -3.0763756 magnetization       0.5803727

 Broyden mixing:
  rms(total) = 0.16354E-01    rms(broyden)= 0.16353E-01
  rms(prec ) = 0.17025E-01
  weight for this iteration     100.00

 eigenvalues of (default mixing * dielectric matrix)
  average eigenvalue GAMMA=   1.2266
  2.4648  1.7972  0.9873  0.8120  0.7099  0.5883

 Free energy of the ion-electron system (eV)
  ---------------------------------------------------
  alpha Z        PSCENC =         2.43951509
  Ewald energy   TEWEN  =       671.96600675
  -Hartree energ DENC   =     -2237.47501408
  -exchange      EXHF   =         0.00000000
  -V(xc)+E(xc)   XCENC  =        32.88883983
  PAW double counting   =      2534.57482231    -2477.62378208
  entropy T*S    EENTRO =         0.00557264
  eigenvalues    EBANDS =      -393.54847629
  atomic energy  EATOM  =      1843.48882543
  Solvation  Ediel_sol  =         0.00000000
  ---------------------------------------------------
  free energy    TOTEN  =       -23.28369040 eV

  energy without entropy =      -23.28926304  energy(sigma->0) =      -23.28508356


--------------------------------------------------------------------------------------------------------




----------------------------------------- Iteration    1(  12)  ---------------------------------------


    POTLOK:  cpu time    0.0648: real time    0.0648
    SETDIJ:  cpu time    0.0036: real time    0.0036
    EDDIAG:  cpu time    0.0186: real time    0.0186
  RMM-DIIS:  cpu time    0.0499: real time    0.0499
    ORTHCH:  cpu time    0.0043: real time    0.0043
       DOS:  cpu time    0.0002: real time    0.0002
    CHARGE:  cpu time    0.0819: real time    0.0819
    MIXING:  cpu time    0.0025: real time    0.0028
    --------------------------------------------
      LOOP:  cpu time    0.2270: real time    0.2342

 eigenvalue-minimisations  :    96
 total energy-change (2. order) :-0.6362353E-01  (-0.6498106E-03)
 number of electron      34.0000007 magnetization       2.1143391
 augmentation part       -3.0771586 magnetization       0.4809436

 Broyden mixing:
  rms(total) = 0.11489E-01    rms(broyden)= 0.11489E-01
  rms(prec ) = 0.12144E-01
  weight for this iteration     100.00

 eigenvalues of (default mixing * dielectric matrix)
  average eigenvalue GAMMA=   1.2489
  2.5592  1.7777  1.5135  0.8216  0.8216  0.6745  0.5742

 Free energy of the ion-electron system (eV)
  ---------------------------------------------------
  alpha Z        PSCENC =         2.43951509
  Ewald energy   TEWEN  =       671.96600675
  -Hartree energ DENC   =     -2237.30587559
  -exchange      EXHF   =         0.00000000
  -V(xc)+E(xc)   XCENC  =        32.82009266
  PAW double counting   =      2533.63694725    -2476.68347193
  entropy T*S    EENTRO =         0.00552407
  eigenvalues    EBANDS =      -393.71487765
  atomic energy  EATOM  =      1843.48882543
  Solvation  Ediel_sol  =         0.00000000
  ---------------------------------------------------
  free energy    TOTEN  =       -23.34731392 eV

  energy without entropy =      -23.35283799  energy(sigma->0) =      -23.34869494


--------------------------------------------------------------------------------------------------------




----------------------------------------- Iteration    1(  13)  ---------------------------------------


    POTLOK:  cpu time    0.0650: real time    0.0650
    SETDIJ:  cpu time    0.0036: real time    0.0036
    EDDIAG:  cpu time    0.0187: real time    0.0187
  RMM-DIIS:  cpu time    0.0502: real time    0.0502
    ORTHCH:  cpu time    0.0042: real time    0.0042
       DOS:  cpu time    0.0002: real time    0.0002
    CHARGE:  cpu time    0.0813: real time    0.0813
    MIXING:  cpu time    0.0026: real time    0.0026
    --------------------------------------------
      LOOP:  cpu time    0.2272: real time    0.2327

 eigenvalue-minimisations  :    96
 total energy-change (2. order) :-0.7249130E-01  (-0.6716188E-03)
 number of electron      34.0000007 magnetization       2.0272447
 augmentation part       -3.0766955 magnetization       0.3933111

 Broyden mixing:
  rms(total) = 0.54901E-02    rms(broyden)= 0.54900E-02
  rms(prec ) = 0.59139E-02
  weight for this iteration     100.00

 eigenvalues of (default mixing * dielectric matrix)
  average eigenvalue GAMMA=   1.4332
  3.4476  2.4479  1.6931  1.0174  0.8045  0.8045  0.5988  0.6519

 Free energy of the ion-electron system (eV)
  ---------------------------------------------------
  alpha Z        PSCENC =         2.43951509
  Ewald energy   TEWEN  =       671.96600675
  -Hartree energ DENC   =     -2236.99655158
  -exchange      EXHF   =         0.00000000
  -V(xc)+E(xc)   XCENC  =        32.73861704
  PAW double counting   =      2531.10590377    -2474.14831103
  entropy T*S    EENTRO =         0.00545945
  eigenvalues    EBANDS =      -394.01927015
  atomic energy  EATOM  =      1843.48882543
  Solvation  Ediel_sol  =         0.00000000
  ---------------------------------------------------
  free energy    TOTEN  =       -23.41980523 eV

  energy without entropy =      -23.42526468  energy(sigma->0) =      -23.42117009


--------------------------------------------------------------------------------------------------------




----------------------------------------- Iteration    1(  14)  ---------------------------------------


    POTLOK:  cpu time    0.0649: real time    0.0649
    SETDIJ:  cpu time    0.0035: real time    0.0035
    EDDIAG:  cpu time    0.0185: real time    0.0185
  RMM-DIIS:  cpu time    0.0514: real time    0.0514
    ORTHCH:  cpu time    0.0042: real time    0.0042
       DOS:  cpu time    0.0002: real time    0.0002
    CHARGE:  cpu time    0.0836: real time    0.0836
    MIXING:  cpu time    0.0028: real time    0.0028
    --------------------------------------------
      LOOP:  cpu time    0.2304: real time    0.2361

 eigenvalue-minimisations  :    98
 total energy-change (2. order) :-0.6403308E-01  (-0.5789109E-03)
 number of electron      34.0000007 magnetization       2.0179893
 augmentation part       -3.0767158 magnetization       0.3837174

 Broyden mixing:
  rms(total) = 0.23974E-02    rms(broyden)= 0.23972E-02
  rms(prec ) = 0.26811E-02
  weight for this iteration     100.00

 eigenvalues of (default mixing * dielectric matrix)
  average eigenvalue GAMMA=   1.3684
  3.5712  2.4460  1.3301  1.3301  0.8106  0.7856  0.7856  0.6118  0.6450

 Free energy of the ion-electron system (eV)
  ---------------------------------------------------
  alpha Z        PSCENC =         2.43951509
  Ewald energy   TEWEN  =       671.96600675
  -Hartree energ DENC   =     -2236.64753719
  -exchange      EXHF   =         0.00000000
  -V(xc)+E(xc)   XCENC  =        32.65937911
  PAW double counting   =      2528.03870077    -2471.07589424
  entropy T*S    EENTRO =         0.00545742
  eigenvalues    EBANDS =      -394.35829145
  atomic energy  EATOM  =      1843.48882543
  Solvation  Ediel_sol  =         0.00000000
  ---------------------------------------------------
  free energy    TOTEN  =       -23.48383831 eV

  energy without entropy =      -23.48929572  energy(sigma->0) =      -23.48520266


--------------------------------------------------------------------------------------------------------




----------------------------------------- Iteration    1(  15)  ---------------------------------------


    POTLOK:  cpu time    0.0654: real time    0.0654
    SETDIJ:  cpu time    0.0037: real time    0.0037
    EDDIAG:  cpu time    0.0187: real time    0.0187
  RMM-DIIS:  cpu time    0.0513: real time    0.0513
    ORTHCH:  cpu time    0.0042: real time    0.0042
       DOS:  cpu time    0.0002: real time    0.0002
    CHARGE:  cpu time    0.0835: real time    0.0835
    MIXING:  cpu time    0.0030: real time    0.0030
    --------------------------------------------
      LOOP:  cpu time    0.2312: real time    0.2377

 eigenvalue-minimisations  :    98
 total energy-change (2. order) :-0.4370077E-02  (-0.7719426E-04)
 number of electron      34.0000007 magnetization       2.0027203
 augmentation part       -3.0768676 magnetization       0.3683235

 Broyden mixing:
  rms(total) = 0.13553E-02    rms(broyden)= 0.13552E-02
  rms(prec ) = 0.16528E-02
  weight for this iteration     100.00

 eigenvalues of (default mixing * dielectric matrix)
  average eigenvalue GAMMA=   1.4111
  3.7597  2.3963  1.7142  1.7142  0.9178  0.9178  0.6000  0.7111  0.6898  0.6898

 Free energy of the ion-electron system (eV)
  ---------------------------------------------------
  alpha Z        PSCENC =         2.43951509
  Ewald energy   TEWEN  =       671.96600675
  -Hartree energ DENC   =     -2236.59215565
  -exchange      EXHF   =         0.00000000
  -V(xc)+E(xc)   XCENC  =        32.65318649
  PAW double counting   =      2528.27739308    -2471.31495596
  entropy T*S    EENTRO =         0.00545397
  eigenvalues    EBANDS =      -394.41147760
  atomic energy  EATOM  =      1843.48882543
  Solvation  Ediel_sol  =         0.00000000
  ---------------------------------------------------
  free energy    TOTEN  =       -23.48820838 eV

  energy without entropy =      -23.49366236  energy(sigma->0) =      -23.48957188


--------------------------------------------------------------------------------------------------------




----------------------------------------- Iteration    1(  16)  ---------------------------------------


    POTLOK:  cpu time    0.0655: real time    0.0655
    SETDIJ:  cpu time    0.0036: real time    0.0036
    EDDIAG:  cpu time    0.0187: real time    0.0187
  RMM-DIIS:  cpu time    0.0511: real time    0.0511
    ORTHCH:  cpu time    0.0042: real time    0.0042
       DOS:  cpu time    0.0002: real time    0.0002
    CHARGE:  cpu time    0.0816: real time    0.0816
    MIXING:  cpu time    0.0030: real time    0.0030
    --------------------------------------------
      LOOP:  cpu time    0.2292: real time    0.2356

 eigenvalue-minimisations  :    97
 total energy-change (2. order) :-0.3597671E-02  (-0.6086080E-04)
 number of electron      34.0000007 magnetization       2.0006166
 augmentation part       -3.0770802 magnetization       0.3660211

 Broyden mixing:
  rms(total) = 0.11355E-02    rms(broyden)= 0.11354E-02
  rms(prec ) = 0.13508E-02
  weight for this iteration     100.00

 eigenvalues of (default mixing * dielectric matrix)
  average eigenvalue GAMMA=   1.4357
  3.8560  2.4726  2.4726  1.6393  0.9477  0.9477  0.7746  0.7746  0.6615  0.6615
  0.5851

 Free energy of the ion-electron system (eV)
  ---------------------------------------------------
  alpha Z        PSCENC =         2.43951509
  Ewald energy   TEWEN  =       671.96600675
  -Hartree energ DENC   =     -2236.48773497
  -exchange      EXHF   =         0.00000000
  -V(xc)+E(xc)   XCENC  =        32.64626060
  PAW double counting   =      2529.18468332    -2472.22313503
  entropy T*S    EENTRO =         0.00546177
  eigenvalues    EBANDS =      -394.51168901
  atomic energy  EATOM  =      1843.48882543
  Solvation  Ediel_sol  =         0.00000000
  ---------------------------------------------------
  free energy    TOTEN  =       -23.49180605 eV

  energy without entropy =      -23.49726782  energy(sigma->0) =      -23.49317150


--------------------------------------------------------------------------------------------------------




----------------------------------------- Iteration    1(  17)  ---------------------------------------


    POTLOK:  cpu time    0.0647: real time    0.0647
    SETDIJ:  cpu time    0.0036: real time    0.0036
    EDDIAG:  cpu time    0.0188: real time    0.0188
  RMM-DIIS:  cpu time    0.0462: real time    0.0462
    ORTHCH:  cpu time    0.0041: real time    0.0041
       DOS:  cpu time    0.0002: real time    0.0002
    CHARGE:  cpu time    0.0817: real time    0.0817
    MIXING:  cpu time    0.0031: real time    0.0031
    --------------------------------------------
      LOOP:  cpu time    0.2238: real time    0.2301

 eigenvalue-minimisations  :    88
 total energy-change (2. order) :-0.3853786E-03  (-0.5800395E-05)
 number of electron      34.0000007 magnetization       2.0000053
 augmentation part       -3.0769787 magnetization       0.3653800

 Broyden mixing:
  rms(total) = 0.66348E-03    rms(broyden)= 0.66347E-03
  rms(prec ) = 0.83341E-03
  weight for this iteration     100.00

 eigenvalues of (default mixing * dielectric matrix)
  average eigenvalue GAMMA=   1.3912
  3.8688  2.5603  2.5603  1.4476  1.0331  1.0331  0.8102  0.8102  0.7016  0.6153
  0.6271  0.6271

 Free energy of the ion-electron system (eV)
  ---------------------------------------------------
  alpha Z        PSCENC =         2.43951509
  Ewald energy   TEWEN  =       671.96600675
  -Hartree energ DENC   =     -2236.45805456
  -exchange      EXHF   =         0.00000000
  -V(xc)+E(xc)   XCENC  =        32.64523799
  PAW double counting   =      2529.49008620    -2472.52909267
  entropy T*S    EENTRO =         0.00545919
  eigenvalues    EBANDS =      -394.54017485
  atomic energy  EATOM  =      1843.48882543
  Solvation  Ediel_sol  =         0.00000000
  ---------------------------------------------------
  free energy    TOTEN  =       -23.49219143 eV

  energy without entropy =      -23.49765063  energy(sigma->0) =      -23.49355623


--------------------------------------------------------------------------------------------------------




----------------------------------------- Iteration    1(  18)  ---------------------------------------


    POTLOK:  cpu time    0.0654: real time    0.0654
    SETDIJ:  cpu time    0.0036: real time    0.0036
    EDDIAG:  cpu time    0.0186: real time    0.0186
  RMM-DIIS:  cpu time    0.0455: real time    0.0455
    ORTHCH:  cpu time    0.0042: real time    0.0042
       DOS:  cpu time    0.0002: real time    0.0002
    CHARGE:  cpu time    0.0826: real time    0.0826
    MIXING:  cpu time    0.0034: real time    0.0034
    --------------------------------------------
      LOOP:  cpu time    0.2249: real time    0.2314

 eigenvalue-minimisations  :    88
 total energy-change (2. order) :-0.1223666E-03  (-0.1603584E-05)
 number of electron      34.0000007 magnetization       1.9980074
 augmentation part       -3.0769370 magnetization       0.3633779

 Broyden mixing:
  rms(total) = 0.29164E-03    rms(broyden)= 0.29162E-03
  rms(prec ) = 0.49681E-03
  weight for this iteration     100.00

 eigenvalues of (default mixing * dielectric matrix)
  average eigenvalue GAMMA=   1.4484
  4.1088  2.6191  2.6191  1.6700  1.6700  1.0352  0.9027  0.9027  0.7554  0.6074
  0.6254  0.6568  0.6568

 Free energy of the ion-electron system (eV)
  ---------------------------------------------------
  alpha Z        PSCENC =         2.43951509
  Ewald energy   TEWEN  =       671.96600675
  -Hartree energ DENC   =     -2236.42884523
  -exchange      EXHF   =         0.00000000
  -V(xc)+E(xc)   XCENC  =        32.64409959
  PAW double counting   =      2529.50234685    -2472.54116465
  entropy T*S    EENTRO =         0.00546247
  eigenvalues    EBANDS =      -394.56856009
  atomic energy  EATOM  =      1843.48882543
  Solvation  Ediel_sol  =         0.00000000
  ---------------------------------------------------
  free energy    TOTEN  =       -23.49231380 eV

  energy without entropy =      -23.49777627  energy(sigma->0) =      -23.49367942


--------------------------------------------------------------------------------------------------------




----------------------------------------- Iteration    1(  19)  ---------------------------------------


    POTLOK:  cpu time    0.0649: real time    0.0649
    SETDIJ:  cpu time    0.0036: real time    0.0036
    EDDIAG:  cpu time    0.0186: real time    0.0186
  RMM-DIIS:  cpu time    0.0479: real time    0.0479
    ORTHCH:  cpu time    0.0042: real time    0.0042
       DOS:  cpu time    0.0002: real time    0.0002
    CHARGE:  cpu time    0.0835: real time    0.0835
    MIXING:  cpu time    0.0035: real time    0.0035
    --------------------------------------------
      LOOP:  cpu time    0.2276: real time    0.2341

 eigenvalue-minimisations  :    89
 total energy-change (2. order) : 0.5423073E-04  (-0.1870523E-05)
 number of electron      34.0000007 magnetization       1.9985147
 augmentation part       -3.0769426 magnetization       0.3638645

 Broyden mixing:
  rms(total) = 0.37538E-03    rms(broyden)= 0.37537E-03
  rms(prec ) = 0.45369E-03
  weight for this iteration     100.00

 eigenvalues of (default mixing * dielectric matrix)
  average eigenvalue GAMMA=   1.4010
  4.2051  2.7813  2.5071  1.5204  1.5204  1.0504  1.0504  0.8619  0.8619  0.6686
  0.6686  0.6918  0.6131  0.6131

 Free energy of the ion-electron system (eV)
  ---------------------------------------------------
  alpha Z        PSCENC =         2.43951509
  Ewald energy   TEWEN  =       671.96600675
  -Hartree energ DENC   =     -2236.35726593
  -exchange      EXHF   =         0.00000000
  -V(xc)+E(xc)   XCENC  =        32.64167388
  PAW double counting   =      2529.50355368    -2472.54191083
  entropy T*S    EENTRO =         0.00546195
  eigenvalues    EBANDS =      -394.63811959
  atomic energy  EATOM  =      1843.48882543
  Solvation  Ediel_sol  =         0.00000000
  ---------------------------------------------------
  free energy    TOTEN  =       -23.49225957 eV

  energy without entropy =      -23.49772152  energy(sigma->0) =      -23.49362506


--------------------------------------------------------------------------------------------------------




----------------------------------------- Iteration    1(  20)  ---------------------------------------


    POTLOK:  cpu time    0.0647: real time    0.0647
    SETDIJ:  cpu time    0.0036: real time    0.0036
    EDDIAG:  cpu time    0.0187: real time    0.0187
  RMM-DIIS:  cpu time    0.0345: real time    0.0345
    ORTHCH:  cpu time    0.0043: real time    0.0043
       DOS:  cpu time    0.0002: real time    0.0002
    CHARGE:  cpu time    0.0810: real time    0.0810
    MIXING:  cpu time    0.0038: real time    0.0038
    --------------------------------------------
      LOOP:  cpu time    0.2120: real time    0.2184

 eigenvalue-minimisations  :    63
 total energy-change (2. order) :-0.8262334E-04  (-0.1335167E-06)
 number of electron      34.0000007 magnetization       1.9995621
 augmentation part       -3.0769261 magnetization       0.3649129

 Broyden mixing:
  rms(total) = 0.19666E-03    rms(broyden)= 0.19666E-03
  rms(prec ) = 0.28073E-03
  weight for this iteration     100.00

 eigenvalues of (default mixing * dielectric matrix)
  average eigenvalue GAMMA=   1.3868
  4.2313  2.8085  2.4748  1.4286  1.4286  1.2657  1.2657  1.0420  0.8358  0.8358
  0.6465  0.6465  0.6754  0.6028  0.6140

 Free energy of the ion-electron system (eV)
  ---------------------------------------------------
  alpha Z        PSCENC =         2.43951509
  Ewald energy   TEWEN  =       671.96600675
  -Hartree energ DENC   =     -2236.35332958
  -exchange      EXHF   =         0.00000000
  -V(xc)+E(xc)   XCENC  =        32.64168951
  PAW double counting   =      2529.44894429    -2472.48740607
  entropy T*S    EENTRO =         0.00546248
  eigenvalues    EBANDS =      -394.64205009
  atomic energy  EATOM  =      1843.48882543
  Solvation  Ediel_sol  =         0.00000000
  ---------------------------------------------------
  free energy    TOTEN  =       -23.49234219 eV

  energy without entropy =      -23.49780467  energy(sigma->0) =      -23.49370781


--------------------------------------------------------------------------------------------------------




----------------------------------------- Iteration    1(  21)  ---------------------------------------


    POTLOK:  cpu time    0.0645: real time    0.0645
    SETDIJ:  cpu time    0.0036: real time    0.0036
    EDDIAG:  cpu time    0.0186: real time    0.0186
  RMM-DIIS:  cpu time    0.0452: real time    0.0452
    ORTHCH:  cpu time    0.0042: real time    0.0042
       DOS:  cpu time    0.0002: real time    0.0002
    CHARGE:  cpu time    0.0811: real time    0.0811
    MIXING:  cpu time    0.0038: real time    0.0038
    --------------------------------------------
      LOOP:  cpu time    0.2225: real time    0.2289

 eigenvalue-minimisations  :    78
 total energy-change (2. order) :-0.1233699E-03  (-0.8287003E-06)
 number of electron      34.0000007 magnetization       2.0000092
 augmentation part       -3.0769366 magnetization       0.3653569

 Broyden mixing:
  rms(total) = 0.19705E-03    rms(broyden)= 0.19704E-03
  rms(prec ) = 0.22520E-03
  weight for this iteration     100.00

 eigenvalues of (default mixing * dielectric matrix)
  average eigenvalue GAMMA=   1.5228
  4.4612  3.5843  2.6889  2.1766  2.1766  1.2700  1.2700  1.1236  0.8388  0.8388
  0.6684  0.6684  0.6903  0.6903  0.5935  0.6258

 Free energy of the ion-electron system (eV)
  ---------------------------------------------------
  alpha Z        PSCENC =         2.43951509
  Ewald energy   TEWEN  =       671.96600675
  -Hartree energ DENC   =     -2236.32939004
  -exchange      EXHF   =         0.00000000
  -V(xc)+E(xc)   XCENC  =        32.64112214
  PAW double counting   =      2529.36959476    -2472.40813612
  entropy T*S    EENTRO =         0.00546257
  eigenvalues    EBANDS =      -394.66546614
  atomic energy  EATOM  =      1843.48882543
  Solvation  Ediel_sol  =         0.00000000
  ---------------------------------------------------
  free energy    TOTEN  =       -23.49246556 eV

  energy without entropy =      -23.49792813  energy(sigma->0) =      -23.49383120


--------------------------------------------------------------------------------------------------------




----------------------------------------- Iteration    1(  22)  ---------------------------------------


    POTLOK:  cpu time    0.0649: real time    0.0649
    SETDIJ:  cpu time    0.0036: real time    0.0036
    EDDIAG:  cpu time    0.0187: real time    0.0187
  RMM-DIIS:  cpu time    0.0364: real time    0.0364
    ORTHCH:  cpu time    0.0042: real time    0.0042
       DOS:  cpu time    0.0002: real time    0.0002
    CHARGE:  cpu time    0.0813: real time    0.0813
    MIXING:  cpu time    0.0044: real time    0.0044
    --------------------------------------------
      LOOP:  cpu time    0.2150: real time    0.2216

 eigenvalue-minimisations  :    61
 total energy-change (2. order) :-0.1198900E-04  (-0.2820279E-06)
 number of electron      34.0000007 magnetization       2.0000227
 augmentation part       -3.0769536 magnetization       0.3653663

 Broyden mixing:
  rms(total) = 0.10284E-03    rms(broyden)= 0.10284E-03
  rms(prec ) = 0.12499E-03
  weight for this iteration     100.00

 eigenvalues of (default mixing * dielectric matrix)
  average eigenvalue GAMMA=   1.5401
  5.2244  4.0397  2.6464  2.0913  2.0913  1.2859  1.2859  1.1741  0.8408  0.8408
  0.7544  0.7544  0.6446  0.6446  0.6430  0.6430  0.5769

 Free energy of the ion-electron system (eV)
  ---------------------------------------------------
  alpha Z        PSCENC =         2.43951509
  Ewald energy   TEWEN  =       671.96600675
  -Hartree energ DENC   =     -2236.31209910
  -exchange      EXHF   =         0.00000000
  -V(xc)+E(xc)   XCENC  =        32.64065460
  PAW double counting   =      2529.44513921    -2472.48366556
  entropy T*S    EENTRO =         0.00546194
  eigenvalues    EBANDS =      -394.68231590
  atomic energy  EATOM  =      1843.48882543
  Solvation  Ediel_sol  =         0.00000000
  ---------------------------------------------------
  free energy    TOTEN  =       -23.49247755 eV

  energy without entropy =      -23.49793949  energy(sigma->0) =      -23.49384303


--------------------------------------------------------------------------------------------------------




----------------------------------------- Iteration    1(  23)  ---------------------------------------


    POTLOK:  cpu time    0.0649: real time    0.0649
    SETDIJ:  cpu time    0.0036: real time    0.0036
    EDDIAG:  cpu time    0.0187: real time    0.0187
  RMM-DIIS:  cpu time    0.0348: real time    0.0348
    ORTHCH:  cpu time    0.0041: real time    0.0041
       DOS:  cpu time    0.0002: real time    0.0002
    CHARGE:  cpu time    0.0820: real time    0.0820
    MIXING:  cpu time    0.0041: real time    0.0041
    --------------------------------------------
      LOOP:  cpu time    0.2138: real time    0.2203

 eigenvalue-minimisations  :    61
 total energy-change (2. order) :-0.3593687E-05  (-0.2903422E-07)
 number of electron      34.0000007 magnetization       2.0000875
 augmentation part       -3.0769620 magnetization       0.3654318

 Broyden mixing:
  rms(total) = 0.56397E-04    rms(broyden)= 0.56396E-04
  rms(prec ) = 0.81701E-04
  weight for this iteration     100.00

 eigenvalues of (default mixing * dielectric matrix)
  average eigenvalue GAMMA=   1.5009
  5.2741  4.0803  2.5545  2.1771  2.1771  1.3047  1.1994  1.1994  0.8987  0.8987
  0.8143  0.7727  0.6615  0.6615  0.6326  0.6326  0.5819  0.4957

 Free energy of the ion-electron system (eV)
  ---------------------------------------------------
  alpha Z        PSCENC =         2.43951509
  Ewald energy   TEWEN  =       671.96600675
  -Hartree energ DENC   =     -2236.30797932
  -exchange      EXHF   =         0.00000000
  -V(xc)+E(xc)   XCENC  =        32.64053566
  PAW double counting   =      2529.46365101    -2472.50215446
  entropy T*S    EENTRO =         0.00546190
  eigenvalues    EBANDS =      -394.68634320
  atomic energy  EATOM  =      1843.48882543
  Solvation  Ediel_sol  =         0.00000000
  ---------------------------------------------------
  free energy    TOTEN  =       -23.49248114 eV

  energy without entropy =      -23.49794304  energy(sigma->0) =      -23.49384662


--------------------------------------------------------------------------------------------------------




----------------------------------------- Iteration    1(  24)  ---------------------------------------


    POTLOK:  cpu time    0.0649: real time    0.0649
    SETDIJ:  cpu time    0.0036: real time    0.0036
    EDDIAG:  cpu time    0.0187: real time    0.0187
  RMM-DIIS:  cpu time    0.0313: real time    0.0313
    ORTHCH:  cpu time    0.0042: real time    0.0042
       DOS:  cpu time    0.0002: real time    0.0002
    CHARGE:  cpu time    0.0812: real time    0.0812
    MIXING:  cpu time    0.0043: real time    0.0043
    --------------------------------------------
      LOOP:  cpu time    0.2099: real time    0.2163

 eigenvalue-minimisations  :    45
 total energy-change (2. order) :-0.3410338E-05  (-0.1042897E-07)
 number of electron      34.0000007 magnetization       2.0000986
 augmentation part       -3.0769616 magnetization       0.3654454

 Broyden mixing:
  rms(total) = 0.37568E-04    rms(broyden)= 0.37567E-04
  rms(prec ) = 0.56804E-04
  weight for this iteration     100.00

 eigenvalues of (default mixing * dielectric matrix)
  average eigenvalue GAMMA=   1.6278
  6.0948  4.1166  2.9405  2.9405  2.4088  1.6314  1.3069  1.3069  1.0258  0.9479
  0.8372  0.8372  0.7277  0.6626  0.6626  0.6452  0.6452  0.6249  0.5655

 Free energy of the ion-electron system (eV)
  ---------------------------------------------------
  alpha Z        PSCENC =         2.43951509
  Ewald energy   TEWEN  =       671.96600675
  -Hartree energ DENC   =     -2236.30850308
  -exchange      EXHF   =         0.00000000
  -V(xc)+E(xc)   XCENC  =        32.64060383
  PAW double counting   =      2529.47311989    -2472.51165134
  entropy T*S    EENTRO =         0.00546204
  eigenvalues    EBANDS =      -394.68586316
  atomic energy  EATOM  =      1843.48882543
  Solvation  Ediel_sol  =         0.00000000
  ---------------------------------------------------
  free energy    TOTEN  =       -23.49248455 eV

  energy without entropy =      -23.49794659  energy(sigma->0) =      -23.49385006


--------------------------------------------------------------------------------------------------------




----------------------------------------- Iteration    1(  25)  ---------------------------------------


    POTLOK:  cpu time    0.0651: real time    0.0651
    SETDIJ:  cpu time    0.0036: real time    0.0036
    EDDIAG:  cpu time    0.0187: real time    0.0187
  RMM-DIIS:  cpu time    0.0324: real time    0.0325
    ORTHCH:  cpu time    0.0042: real time    0.0042
       DOS:  cpu time    0.0002: real time    0.0002
    CHARGE:  cpu time    0.0815: real time    0.0815
    MIXING:  cpu time    0.0045: real time    0.0045
    --------------------------------------------
      LOOP:  cpu time    0.2125: real time    0.2188

 eigenvalue-minimisations  :    55
 total energy-change (2. order) :-0.7264605E-05  (-0.4611759E-07)
 number of electron      34.0000007 magnetization       2.0000785
 augmentation part       -3.0769583 magnetization       0.3654268

 Broyden mixing:
  rms(total) = 0.40847E-04    rms(broyden)= 0.40845E-04
  rms(prec ) = 0.47298E-04
  weight for this iteration     100.00

 eigenvalues of (default mixing * dielectric matrix)
  average eigenvalue GAMMA=   1.6291
  6.7878  4.1458  3.2853  2.7432  2.2804  1.7921  1.2932  1.2932  1.0515  1.0515
  0.8568  0.8568  0.7360  0.6666  0.6666  0.6571  0.6248  0.5841  0.6045  0.6045

 Free energy of the ion-electron system (eV)
  ---------------------------------------------------
  alpha Z        PSCENC =         2.43951509
  Ewald energy   TEWEN  =       671.96600675
  -Hartree energ DENC   =     -2236.30609636
  -exchange      EXHF   =         0.00000000
  -V(xc)+E(xc)   XCENC  =        32.64062405
  PAW double counting   =      2529.46990666    -2472.50845694
  entropy T*S    EENTRO =         0.00546151
  eigenvalues    EBANDS =      -394.68827802
  atomic energy  EATOM  =      1843.48882543
  Solvation  Ediel_sol  =         0.00000000
  ---------------------------------------------------
  free energy    TOTEN  =       -23.49249182 eV

  energy without entropy =      -23.49795333  energy(sigma->0) =      -23.49385720


--------------------------------------------------------------------------------------------------------




----------------------------------------- Iteration    1(  26)  ---------------------------------------


    POTLOK:  cpu time    0.0652: real time    0.0652
    SETDIJ:  cpu time    0.0036: real time    0.0036
    EDDIAG:  cpu time    0.0188: real time    0.0188
  RMM-DIIS:  cpu time    0.0243: real time    0.0243
    ORTHCH:  cpu time    0.0043: real time    0.0043
       DOS:  cpu time    0.0002: real time    0.0002
    CHARGE:  cpu time    0.0816: real time    0.0816
    MIXING:  cpu time    0.0047: real time    0.0047
    --------------------------------------------
      LOOP:  cpu time    0.2040: real time    0.2105

 eigenvalue-minimisations  :    26
 total energy-change (2. order) :-0.1721581E-05  (-0.3380292E-08)
 number of electron      34.0000007 magnetization       2.0000457
 augmentation part       -3.0769583 magnetization       0.3653932

 Broyden mixing:
  rms(total) = 0.22898E-04    rms(broyden)= 0.22898E-04
  rms(prec ) = 0.28649E-04
  weight for this iteration     100.00

 eigenvalues of (default mixing * dielectric matrix)
  average eigenvalue GAMMA=   1.6409
  7.0939  4.2162  3.6482  2.7312  2.0823  2.0823  1.3611  1.3611  1.1753  0.8933
  0.8933  0.8635  0.8635  0.7226  0.6489  0.6489  0.6875  0.5782  0.6300  0.6300
  0.6476

 Free energy of the ion-electron system (eV)
  ---------------------------------------------------
  alpha Z        PSCENC =         2.43951509
  Ewald energy   TEWEN  =       671.96600675
  -Hartree energ DENC   =     -2236.30540294
  -exchange      EXHF   =         0.00000000
  -V(xc)+E(xc)   XCENC  =        32.64060237
  PAW double counting   =      2529.46110529    -2472.49964104
  entropy T*S    EENTRO =         0.00546147
  eigenvalues    EBANDS =      -394.68896596
  atomic energy  EATOM  =      1843.48882543
  Solvation  Ediel_sol  =         0.00000000
  ---------------------------------------------------
  free energy    TOTEN  =       -23.49249354 eV

  energy without entropy =      -23.49795501  energy(sigma->0) =      -23.49385891


--------------------------------------------------------------------------------------------------------




----------------------------------------- Iteration    1(  27)  ---------------------------------------


    POTLOK:  cpu time    0.0651: real time    0.0651
    SETDIJ:  cpu time    0.0036: real time    0.0036
    EDDIAG:  cpu time    0.0186: real time    0.0186
  RMM-DIIS:  cpu time    0.0289: real time    0.0290
    ORTHCH:  cpu time    0.0041: real time    0.0041
       DOS:  cpu time    0.0002: real time    0.0002
    CHARGE:  cpu time    0.0817: real time    0.0817
    MIXING:  cpu time    0.0049: real time    0.0049
    --------------------------------------------
      LOOP:  cpu time    0.2084: real time    0.2149

 eigenvalue-minimisations  :    41
 total energy-change (2. order) :-0.1732762E-05  (-0.8121120E-08)
 number of electron      34.0000007 magnetization       2.0000390
 augmentation part       -3.0769598 magnetization       0.3653867

 Broyden mixing:
  rms(total) = 0.46489E-04    rms(broyden)= 0.46488E-04
  rms(prec ) = 0.47235E-04
  weight for this iteration     100.00

 eigenvalues of (default mixing * dielectric matrix)
  average eigenvalue GAMMA=   1.5902
  7.1635  4.2048  3.5879  2.5834  2.1157  2.1157  1.3759  1.3759  1.2510  0.8910
  0.8910  0.8824  0.8824  0.7553  0.6678  0.6678  0.6437  0.6437  0.6035  0.5882
  0.5882  0.5065

 Free energy of the ion-electron system (eV)
  ---------------------------------------------------
  alpha Z        PSCENC =         2.43951509
  Ewald energy   TEWEN  =       671.96600675
  -Hartree energ DENC   =     -2236.30472111
  -exchange      EXHF   =         0.00000000
  -V(xc)+E(xc)   XCENC  =        32.64059308
[...]
  RMM-DIIS:  cpu time    0.0303: real time    0.0303
    ORTHCH:  cpu time    0.0042: real time    0.0042
       DOS:  cpu time    0.0002: real time    0.0002
    CHARGE:  cpu time    0.0818: real time    0.0818
    MIXING:  cpu time    0.0019: real time    0.0019
    --------------------------------------------
      LOOP:  cpu time    0.2068: real time    0.2132

 eigenvalue-minimisations  :    54
 total energy-change (2. order) : 0.1220370E-05  (-0.4263420E-07)
 number of electron      34.0000005 magnetization       2.0000003
 augmentation part       -3.0724245 magnetization       0.3616635

 Broyden mixing:
  rms(total) = 0.30746E-03    rms(broyden)= 0.30746E-03
  rms(prec ) = 0.32029E-03
  weight for this iteration     100.00

 eigenvalues of (default mixing * dielectric matrix)
  average eigenvalue GAMMA=   1.3209
  2.2584  1.0477  0.6566

 Free energy of the ion-electron system (eV)
  ---------------------------------------------------
  alpha Z        PSCENC =         2.43951509
  Ewald energy   TEWEN  =       698.66997584
  -Hartree energ DENC   =     -2262.32805582
  -exchange      EXHF   =         0.00000000
  -V(xc)+E(xc)   XCENC  =        32.83942953
  PAW double counting   =      2627.06058366    -2570.20299211
  entropy T*S    EENTRO =         0.01102271
  eigenvalues    EBANDS =      -395.53152483
  atomic energy  EATOM  =      1843.48882543
  Solvation  Ediel_sol  =         0.00000000
  ---------------------------------------------------
  free energy    TOTEN  =       -23.55322050 eV

  energy without entropy =      -23.56424321  energy(sigma->0) =      -23.55597618


--------------------------------------------------------------------------------------------------------




----------------------------------------- Iteration   31(   5)  ---------------------------------------


    POTLOK:  cpu time    0.0656: real time    0.0656
    SETDIJ:  cpu time    0.0036: real time    0.0036
    EDDIAG:  cpu time    0.0186: real time    0.0186
  RMM-DIIS:  cpu time    0.0298: real time    0.0298
    ORTHCH:  cpu time    0.0042: real time    0.0042
       DOS:  cpu time    0.0002: real time    0.0002
    --------------------------------------------
      LOOP:  cpu time    0.1233: real time    0.1297

 eigenvalue-minimisations  :    55
 total energy-change (2. order) : 0.7138669E-07  (-0.4049603E-07)
 number of electron      34.0000005 magnetization       2.0000003
 augmentation part       -3.0724245 magnetization       0.3616635

 Free energy of the ion-electron system (eV)
  ---------------------------------------------------
  alpha Z        PSCENC =         2.43951509
  Ewald energy   TEWEN  =       698.66997584
  -Hartree energ DENC   =     -2262.32804638
  -exchange      EXHF   =         0.00000000
  -V(xc)+E(xc)   XCENC  =        32.83943378
  PAW double counting   =      2627.07932784    -2570.22176156
  entropy T*S    EENTRO =         0.01102276
  eigenvalues    EBANDS =      -395.53151323
  atomic energy  EATOM  =      1843.48882543
  Solvation  Ediel_sol  =         0.00000000
  ---------------------------------------------------
  free energy    TOTEN  =       -23.55322043 eV

  energy without entropy =      -23.56424318  energy(sigma->0) =      -23.55597612


--------------------------------------------------------------------------------------------------------




 average (electrostatic) potential at core
  the test charge radii are     1.1823  0.9406
  (the norm of the test charge is              1.0000)
       1 -51.6036       2-101.2370       3-101.2370       4-101.2395       5-101.2368
 
 
 
 E-fermi :  -4.6779     XC(G=0):  -0.6185     alpha+bet : -0.2918


 spin component 1

 k-point     1 :       0.0000    0.0000    0.0000
  band No.  band energies     occupation 
      1     -20.9675      1.00000
      2     -20.6535      1.00000
      3     -20.6521      1.00000
      4     -20.6517      1.00000
      5     -10.6675      1.00000
      6     -10.1225      1.00000
      7     -10.1150      1.00000
      8     -10.1143      1.00000
      9      -9.6609      1.00000
     10      -9.6520      1.00000
     11      -8.8738      1.00000
     12      -8.8724      1.00000
     13      -8.8677      1.00000
     14      -8.1451      1.00000
     15      -8.1450      1.00000
     16      -8.1406      1.00000
     17      -4.8070      1.00436
     18      -4.8021      0.99564
     19      -3.4344      0.00000
     20      -3.4325      0.00000
     21      -3.4169      0.00000
     22      -0.9325      0.00000
     23       0.3317      0.00000
     24       0.3353      0.00000

 spin component 2

 k-point     1 :       0.0000    0.0000    0.0000
  band No.  band energies     occupation 
      1     -20.8740      1.00000
      2     -20.5735      1.00000
      3     -20.5716      1.00000
      4     -20.5714      1.00000
      5     -10.4615      1.00000
      6      -9.9555      1.00000
      7      -9.9479      1.00000
      8      -9.9473      1.00000
      9      -9.2259      1.00000
     10      -9.2147      1.00000
     11      -8.7410      1.00000
     12      -8.7391      1.00000
     13      -8.7335      1.00000
     14      -8.0234      1.00000
     15      -8.0227      1.00000
     16      -8.0178      1.00000
     17      -3.4821      0.00000
     18      -3.4775      0.00000
     19      -3.0030      0.00000
     20      -3.0012      0.00000
     21      -2.9870      0.00000
     22      -0.7928      0.00000
     23       0.3910      0.00000
     24       0.4031      0.00000


--------------------------------------------------------------------------------------------------------


 soft charge-density along one line, spin component           1
         0         1         2         3         4         5         6         7         8         9
 total charge-density along one line
 
 soft charge-density along one line, spin component           2
         0         1         2         3         4         5         6         7         8         9
 total charge-density along one line
 
 pseudopotential strength for first ion, spin component:           1
 -9.455   0.001   0.000   0.001   0.002 -10.909   0.001   0.000
  0.001  -9.457  -0.000   0.001   0.001   0.001 -10.911  -0.000
  0.000  -0.000  -9.454  -0.002   0.001   0.000  -0.000 -10.909
  0.001   0.001  -0.002  -9.455   0.001   0.001   0.001  -0.002
  0.002   0.001   0.001   0.001  -9.455   0.002   0.000   0.001
-10.909   0.001   0.000   0.001   0.002 -12.572   0.001   0.000
  0.001 -10.911  -0.000   0.001   0.000   0.001 -12.573  -0.000
  0.000  -0.000 -10.909  -0.002   0.001   0.000  -0.000 -12.571
  0.001   0.001  -0.002 -10.909   0.001   0.001   0.001  -0.001
  0.002   0.000   0.001   0.001 -10.909   0.001   0.000   0.001
 -0.000  -0.000   0.000  -0.000  -0.000  -0.000  -0.000   0.000
 -0.000  -0.000   0.000  -0.000  -0.000  -0.000  -0.000   0.000
  0.003  -0.004  -0.003  -0.003   0.001   0.003  -0.004  -0.004
 -0.003  -0.004   0.001   0.003   0.003  -0.003  -0.004   0.001
  0.003  -0.003   0.002   0.003  -0.003   0.003  -0.003   0.002
  0.003  -0.005  -0.004  -0.004   0.001   0.004  -0.006  -0.005
 -0.004  -0.005   0.001   0.003   0.004  -0.005  -0.006   0.001
  0.004  -0.004   0.003   0.004  -0.005   0.004  -0.005   0.003
 pseudopotential strength for first ion, spin component:           2
 -9.320   0.020   0.017   0.024   0.060 -10.748   0.024   0.020
  0.020  -9.375  -0.010   0.020   0.017   0.024 -10.813  -0.012
  0.017  -0.010  -9.299  -0.061   0.024   0.020  -0.012 -10.723
  0.024   0.020  -0.061  -9.320   0.016   0.028   0.024  -0.072
  0.060   0.017   0.024   0.016  -9.327   0.072   0.021   0.029
-10.748   0.024   0.020   0.028   0.072 -12.380   0.029   0.024
  0.024 -10.813  -0.012   0.024   0.021   0.029 -12.457  -0.014
  0.020  -0.012 -10.723  -0.072   0.029   0.024  -0.014 -12.350
  0.028   0.024  -0.072 -10.748   0.018   0.033   0.029  -0.086
  0.072   0.021   0.029   0.018 -10.756   0.085   0.025   0.034
 -0.001  -0.000  -0.000  -0.001   0.000  -0.001  -0.000  -0.000
 -0.001  -0.001  -0.000  -0.001   0.000  -0.001  -0.001  -0.000
  0.002  -0.003  -0.003  -0.003   0.001   0.003  -0.004  -0.003
 -0.003  -0.003   0.001   0.002   0.003  -0.003  -0.004   0.001
  0.002  -0.003   0.002   0.002  -0.003   0.003  -0.003   0.002
  0.003  -0.005  -0.004  -0.004   0.001   0.004  -0.006  -0.005
 -0.004  -0.005   0.001   0.003   0.004  -0.005  -0.006   0.001
  0.004  -0.004   0.003   0.004  -0.004   0.004  -0.005   0.003
 total augmentation occupancy for first ion, spin component:           1
  7.643  -0.867  -0.718  -0.985  -2.527  -4.941   0.626   0.518   0.711   1.823  -0.013   0.002  -0.402   0.504  -0.459   0.030
 -0.867  10.004   0.419  -0.867  -0.725   0.626  -6.644  -0.302   0.626   0.523  -0.006   0.001   0.642   0.642   0.502  -0.048
 -0.718   0.419   6.748   2.548  -1.014   0.518  -0.302  -4.295  -1.838   0.732   0.002  -0.001   0.554  -0.154  -0.345  -0.041
 -0.985  -0.867   2.548   7.643  -0.642   0.711   0.626  -1.838  -4.941   0.463  -0.013   0.002   0.504  -0.402  -0.459  -0.037
 -2.527  -0.725  -1.014  -0.642   7.919   1.823   0.523   0.732   0.463  -5.140  -0.004   0.001  -0.142  -0.551   0.597   0.011
 -4.941   0.626   0.518   0.711   1.823   3.530  -0.363  -0.300  -0.410  -1.053   0.011  -0.002   0.278  -0.348   0.317  -0.021
  0.626  -6.644  -0.302   0.626   0.523  -0.363   4.520   0.174  -0.363  -0.302   0.005  -0.001  -0.444  -0.444  -0.347   0.034
  0.518  -0.302  -4.295  -1.838   0.732  -0.300   0.174   3.155   1.062  -0.423  -0.002   0.000  -0.383   0.106   0.238   0.029
  0.711   0.626  -1.838  -4.941   0.463  -0.410  -0.363   1.062   3.530  -0.267   0.011  -0.002  -0.348   0.278   0.317   0.027
  1.823   0.523   0.732   0.463  -5.140  -1.053  -0.302  -0.423  -0.267   3.644   0.004  -0.001   0.098   0.381  -0.413  -0.008
 -0.013  -0.006   0.002  -0.013  -0.004   0.011   0.005  -0.002   0.011   0.004   2.260  -0.355   0.001   0.001  -0.001  -0.000
  0.002   0.001  -0.001   0.002   0.001  -0.002  -0.001   0.000  -0.002  -0.001  -0.355   0.071  -0.000  -0.000   0.000   0.000
 -0.402   0.642   0.554   0.504  -0.142   0.278  -0.444  -0.383  -0.348   0.098   0.001  -0.000   0.280  -0.000  -0.001  -0.019
  0.504   0.642  -0.154  -0.402  -0.551  -0.348  -0.444   0.106   0.278   0.381   0.001  -0.000  -0.000   0.280  -0.001   0.000
 -0.459   0.502  -0.345  -0.459   0.597   0.317  -0.347   0.238   0.317  -0.413  -0.001   0.000  -0.001  -0.001   0.280   0.000
  0.030  -0.048  -0.041  -0.037   0.011  -0.021   0.034   0.029   0.027  -0.008  -0.000   0.000  -0.019   0.000   0.000   0.001
 -0.037  -0.048   0.011   0.030   0.041   0.027   0.034  -0.008  -0.021  -0.029  -0.000   0.000   0.000  -0.019   0.000  -0.000
  0.034  -0.037   0.025   0.034  -0.044  -0.024   0.027  -0.018  -0.024   0.032   0.000  -0.000   0.000   0.000  -0.019  -0.000
 total augmentation occupancy for first ion, spin component:           2
 -0.055   0.009   0.006   0.010   0.024   0.143   0.007   0.006   0.009   0.023   0.000   0.000   0.002  -0.002   0.002   0.002
  0.009  -0.079  -0.004   0.009   0.007   0.007   0.124  -0.004   0.007   0.007   0.000   0.000  -0.002  -0.002  -0.002  -0.002
  0.006  -0.004  -0.047  -0.024   0.009   0.007  -0.004   0.151  -0.023   0.009  -0.001   0.000  -0.002   0.000   0.001  -0.002
  0.010   0.009  -0.024  -0.055   0.007   0.009   0.007  -0.023   0.143   0.006   0.000   0.000  -0.002   0.002   0.002  -0.002
  0.024   0.007   0.009   0.007  -0.058   0.023   0.007   0.009   0.006   0.140   0.001  -0.001   0.001   0.002  -0.002   0.001
  0.143   0.007   0.007   0.009   0.023   0.136   0.080   0.067   0.092   0.238   0.001  -0.000  -0.003   0.004  -0.003  -0.001
  0.007   0.124  -0.004   0.007   0.007   0.080  -0.081  -0.039   0.080   0.068   0.001  -0.000   0.005   0.005   0.004   0.001
  0.006  -0.004   0.151  -0.023   0.009   0.067  -0.039   0.219  -0.240   0.095  -0.000  -0.000   0.004  -0.001  -0.003   0.001
  0.009   0.007  -0.023   0.143   0.006   0.092   0.080  -0.240   0.136   0.061   0.001  -0.000   0.004  -0.003  -0.003   0.001
  0.023   0.007   0.009   0.006   0.140   0.238   0.068   0.095   0.061   0.109   0.000   0.000  -0.001  -0.004   0.005  -0.000
  0.000   0.000  -0.001   0.000   0.001   0.001   0.001  -0.000   0.001   0.000   0.025   0.014  -0.000  -0.000   0.000   0.000
  0.000   0.000   0.000   0.000  -0.001  -0.000  -0.000  -0.000  -0.000   0.000   0.014  -0.004   0.000   0.000  -0.000  -0.000
  0.002  -0.002  -0.002  -0.002   0.001  -0.003   0.005   0.004   0.004  -0.001  -0.000   0.000   0.004   0.000   0.000  -0.000
 -0.002  -0.002   0.000   0.002   0.002   0.004   0.005  -0.001  -0.003  -0.004  -0.000   0.000   0.000   0.004   0.000  -0.000
  0.002  -0.002   0.001   0.002  -0.002  -0.003   0.004  -0.003  -0.003   0.005   0.000  -0.000   0.000   0.000   0.004  -0.000
  0.002  -0.002  -0.002  -0.002   0.001  -0.001   0.001   0.001   0.001  -0.000   0.000  -0.000  -0.000  -0.000  -0.000   0.000
 -0.002  -0.002   0.001   0.002   0.002   0.001   0.001  -0.000  -0.001  -0.001   0.000  -0.000  -0.000  -0.000  -0.000   0.000
  0.002  -0.002   0.001   0.002  -0.002  -0.001   0.001  -0.001  -0.001   0.001  -0.000   0.000  -0.000  -0.000  -0.000   0.000


------------------------ aborting loop because EDIFF is reached ----------------------------------------


    CHARGE:  cpu time    0.0820: real time    0.0820
    FORLOC:  cpu time    0.0017: real time    0.0017
    FORNL :  cpu time    0.0173: real time    0.0173
    STRESS:  cpu time    0.0503: real time    0.0503
    FORCOR:  cpu time    0.0642: real time    0.0642
    FORHAR:  cpu time    0.0085: real time    0.0085
    MIXING:  cpu time    0.0019: real time    0.0019
    OFIELD:  cpu time    0.0000: real time    0.0000

  FORCE on cell =-STRESS in cart. coord.  units (eV):
  Direction    XX          YY          ZZ          XY          YZ          ZX
  --------------------------------------------------------------------------------------
  Alpha Z     2.43952     2.43952     2.43952
  Ewald     231.84835   233.41045   233.41045    -2.55784    -1.49793    -2.55784
  Hartree   753.34611   754.49065   754.49065    -1.67813    -1.06182    -1.67813
  E(xc)    -129.96373  -129.96814  -129.96814    -0.00234    -0.00188    -0.00234
  Local   -1639.72920 -1642.39929 -1642.39929     4.11235     2.49814     4.11235
  n-local   314.67166   314.64087   314.64087    -0.03103    -0.01938    -0.03105
  augment   -73.09316   -73.08635   -73.08635    -0.00143    -0.00058    -0.00141
  Kinetic   540.38043   540.39898   540.39898     0.17496     0.09456     0.17496
  Fock        0.00000     0.00000     0.00000     0.00000     0.00000     0.00000
  -------------------------------------------------------------------------------------
  Total      -0.10004    -0.07331    -0.07331     0.01654     0.01111     0.01654
  in kB      -0.04749    -0.03480    -0.03480     0.00785     0.00528     0.00785
  external pressure =       -0.04 kB  Pullay stress =        0.00 kB


 VOLUME and BASIS-vectors are now :
 -----------------------------------------------------------------------------
  energy-cutoff  :      450.00
  volume of cell :     3375.00
      direct lattice vectors                 reciprocal lattice vectors
    15.000000000  0.000000000  0.000000000     0.066666667  0.000000000  0.000000000
     0.000000000 15.000000000  0.000000000     0.000000000  0.066666667  0.000000000
     0.000000000  0.000000000 15.000000000     0.000000000  0.000000000  0.066666667

  length of vectors
    15.000000000 15.000000000 15.000000000     0.066666667  0.066666667  0.066666667


 FORCES acting on ions
    electron-ion (+dipol)            ewald-force                    non-local-force                 convergence-correction
 -----------------------------------------------------------------------------------------------
   -.831E+00 0.523E+00 0.523E+00   0.806E+00 -.509E+00 -.509E+00   0.190E-01 -.151E-01 -.151E-01   0.878E-03 0.291E-03 0.291E-03
   0.114E+03 0.188E+03 -.845E+02   -.116E+03 -.190E+03 0.855E+02   0.132E+01 0.215E+01 -.978E+00   0.436E-03 -.304E-03 -.370E-04
   0.114E+03 -.845E+02 0.188E+03   -.116E+03 0.855E+02 -.190E+03   0.132E+01 -.978E+00 0.215E+01   0.436E-03 -.370E-04 -.304E-03
   -.218E+03 0.625E+02 0.625E+02   0.221E+03 -.632E+02 -.632E+02   -.250E+01 0.711E+00 0.711E+00   -.675E-03 0.634E-03 0.634E-03
   -.953E+01 -.167E+03 -.167E+03   0.963E+01 0.169E+03 0.169E+03   -.932E-01 -.191E+01 -.191E+01   0.670E-03 0.371E-03 0.371E-03
 -----------------------------------------------------------------------------------------------
   -.586E-01 0.355E-01 0.355E-01   -.107E-13 0.284E-13 0.284E-13   0.618E-01 -.423E-01 -.423E-01   0.174E-02 0.955E-03 0.955E-03
 
 
 POSITION                                       TOTAL-FORCE (eV/Angst)
 -----------------------------------------------------------------------------------
      7.95233      8.39843      8.39843        -0.006040      0.000833      0.000833
      6.86247      6.60615      9.20460         0.004799     -0.001265     -0.005397
      6.86247      9.20460      6.60615         0.004799     -0.005397     -0.001265
     10.03709      7.80477      7.80477        -0.004539      0.001494      0.001494
      8.03564      9.98605      9.98605         0.000982      0.004335      0.004335
 -----------------------------------------------------------------------------------
    total drift:                                0.004933     -0.005818     -0.005823


--------------------------------------------------------------------------------------------------------



  FREE ENERGIE OF THE ION-ELECTRON SYSTEM (eV)
  ---------------------------------------------------
  free  energy   TOTEN  =       -23.55322043 eV

  energy  without entropy=      -23.56424318  energy(sigma->0) =      -23.55597612
 
 d Force = 0.7134545E-05[ 0.341E-05, 0.109E-04]  d Energy = 0.5269544E-05 0.187E-05
 d Force =-0.2433678E-01[-0.243E-01,-0.243E-01]  d Ewald  =-0.2433678E-01-0.430E-08


--------------------------------------------------------------------------------------------------------


    POTLOK:  cpu time    0.0696: real time    0.0696


--------------------------------------------------------------------------------------------------------


 Conjugate gradient step on ions:
 trial-energy change:   -0.000005  1 .order   -0.000007   -0.000011   -0.000003
  (g-gl).g = 0.182E-05      g.g   = 0.284E-05  gl.gl    = 0.432E-04
 g(Force)  = 0.284E-05   g(Stress)= 0.000E+00 ortho     =-0.225E-06
 gamma     =   0.04219
 trial     =   3.83846
 opt step  =   5.59462  (harmonic =   5.59462) maximal distance =0.00045629
 next E    =   -23.553223   (d E  =  -0.00001)


--------------------------------------------------------------------------------------------------------


  
 reached required accuracy - stopping structural energy minimisation
     LOOP+:  cpu time    1.3295: real time    1.3676
    4ORBIT:  cpu time    0.0000: real time    0.0000

 total amount of memory used by VASP on root node    39554. kBytes
========================================================================

   base      :      30000. kBytes
   nonlr-proj:        272. kBytes
   fftplans  :       2467. kBytes
   grid      :       6195. kBytes
   one-center:         31. kBytes
   wavefun   :        589. kBytes
 
  
  
 General timing and accounting informations for this job:
 ========================================================
  
                  Total CPU time used (sec):       77.168
                            User time (sec):       75.706
                          System time (sec):        1.462
                         Elapsed time (sec):       79.280
  
                   Maximum memory used (kb):      131796.
                   Average memory used (kb):           0.
  
                          Minor page faults:        43521
                          Major page faults:            0
                 Voluntary context switches:         6427
