 vasp.5.4.4.18Apr17-6-g9f103f2a35 (build Jan 21 2021 13:12:21) complex          
  
 executed on             LinuxIFC date 2021.12.20  22:04:48
 running on   16 total cores
 distrk:  each k-point on   16 cores,    1 groups
 distr:  one band on NCORES_PER_BAND=   1 cores,   16 groups


--------------------------------------------------------------------------------------------------------


 INCAR:
 POTCAR:    PAW_PBE W 08Apr2002                   
 POTCAR:    PAW_PBE Cl 17Jan2003                  

 ----------------------------------------------------------------------------- 
|                                                                             |
|           W    W    AA    RRRRR   N    N  II  N    N   GGGG   !!!           |
|           W    W   A  A   R    R  NN   N  II  NN   N  G    G  !!!           |
|           W    W  A    A  R    R  N N  N  II  N N  N  G       !!!           |
|           W WW W  AAAAAA  RRRRR   N  N N  II  N  N N  G  GGG   !            |
|           WW  WW  A    A  R   R   N   NN  II  N   NN  G    G                |
|           W    W  A    A  R    R  N    N  II  N    N   GGGG   !!!           |
|                                                                             |
|      For optimal performance we recommend to set                            |
|        NCORE= 4 - approx SQRT( number of cores)                             |
|      NCORE specifies how many cores store one orbital (NPAR=cpu/NCORE).     |
|      This setting can  greatly improve the performance of VASP for DFT.     |
|      The default,   NCORE=1            might be grossly inefficient         |
|      on modern multi-core architectures or massively parallel machines.     |
|      Do your own testing !!!!                                               |
|      Unfortunately you need to use the default for GW and RPA calculations. |
|      (for HF NCORE is supported but not extensively tested yet)             |
|                                                                             |
 ----------------------------------------------------------------------------- 

 POTCAR:    PAW_PBE W 08Apr2002                   
   VRHFIN =W : 6s5d                                                             
   LEXCH  = PE                                                                  
   EATOM  =   204.6103 eV,   15.0384 Ry                                         
                                                                                
   TITEL  = PAW_PBE W 08Apr2002                                                 
   LULTRA =        F    use ultrasoft PP ?                                      
   IUNSCR =        1    unscreen: 0-lin 1-nonlin 2-no                           
   RPACOR =    2.330    partial core radius                                     
   POMASS =  183.850; ZVAL   =    6.000    mass and valenz                      
   RCORE  =    2.750    outmost cutoff radius                                   
   RWIGS  =    2.750; RWIGS  =    1.455    wigner-seitz radius (au A)           
   ENMAX  =  223.057; ENMIN  =  167.293 eV                                      
   RCLOC  =    2.147    cutoff for local pot                                    
   LCOR   =        T    correct aug charges                                     
   LPAW   =        T    paw PP                                                  
   EAUG   =  373.438                                                            
   DEXC   =    0.000                                                            
   RMAX   =    2.801    core radius for proj-oper                               
   RAUG   =    1.300    factor for augmentation sphere                          
   RDEP   =    2.886    radius for radial grids                                 
   RDEPT  =    2.230    core radius for aug-charge                              
                                                                                
   Atomic configuration                                                         
   16 entries                                                                   
     n  l   j            E        occ.                                          
     1  0  0.50    -69465.5836   2.0000                                         
     2  0  0.50    -11986.2642   2.0000                                         
     2  1  1.50    -10479.8616   6.0000                                         
     3  0  0.50     -2759.0758   2.0000                                         
     3  1  1.50     -2313.1857   6.0000                                         
     3  2  2.50     -1801.1185  10.0000                                         
     4  0  0.50      -567.6791   2.0000                                         
     4  1  1.50      -421.4694   6.0000                                         
     4  2  2.50      -236.3473  10.0000                                         
     4  3  3.50       -31.2666  14.0000                                         
     5  0  0.50       -77.1085   2.0000                                         
     5  1  1.50       -41.3856   6.0000                                         
     5  2  2.50        -3.3185   5.0000                                         
     6  0  0.50        -5.1438   1.0000                                         
     6  1  0.50        -3.8096   0.0000                                         
     5  3  2.50        -1.3606   0.0000                                         
   Description                                                                  
     l       E           TYP  RCUT    TYP  RCUT                                 
     2     -3.3185288     23  2.500                                             
     2     -1.5965414     23  2.500                                             
     0     -5.1438054     23  2.500                                             
     0      4.9117504     23  2.500                                             
     1      2.7211652     23  2.750                                             
     1     27.2116520     23  2.750                                             
  local pseudopotential read in
  partial core-charges read in
  partial kinetic energy density read in
  atomic valenz-charges read in
  non local Contribution for L=           2  read in
    real space projection operators read in
  non local Contribution for L=           2  read in
    real space projection operators read in
  non local Contribution for L=           0  read in
    real space projection operators read in
  non local Contribution for L=           0  read in
    real space projection operators read in
  non local Contribution for L=           1  read in
    real space projection operators read in
  non local Contribution for L=           1  read in
    real space projection operators read in
    PAW grid and wavefunctions read in
 
   number of l-projection  operators is LMAX  =           6
   number of lm-projection operators is LMMAX =          18
 
 POTCAR:    PAW_PBE Cl 17Jan2003                  
   VRHFIN =Cl: s2p5                                                             
   LEXCH  = PE                                                                  
   EATOM  =   409.7259 eV,   30.1140 Ry                                         
                                                                                
   TITEL  = PAW_PBE Cl 17Jan2003                                                
   LULTRA =        F    use ultrasoft PP ?                                      
   IUNSCR =        1    unscreen: 0-lin 1-nonlin 2-no                           
   RPACOR =    1.500    partial core radius                                     
   POMASS =   35.453; ZVAL   =    7.000    mass and valenz                      
   RCORE  =    1.900    outmost cutoff radius                                   
   RWIGS  =    2.100; RWIGS  =    1.111    wigner-seitz radius (au A)           
   ENMAX  =  280.000; ENMIN  =  196.854 eV                                      
   ICORE  =        2    local potential                                         
   LCOR   =        T    correct aug charges                                     
   LPAW   =        T    paw PP                                                  
   EAUG   =  356.192                                                            
   DEXC   =     .000                                                            
   RMAX   =    2.846    core radius for proj-oper                               
   RAUG   =    1.300    factor for augmentation sphere                          
   RDEP   =    2.020    radius for radial grids                                 
   QCUT   =   -4.392; QGAM   =    8.784    optimization parameters              
                                                                                
   Description                                                                  
     l     E      TYP  RCUT    TYP  RCUT                                        
     0   .000     23  1.900                                                     
     0   .000     23  1.900                                                     
     1   .000     23  1.900                                                     
     1   .000     23  1.900                                                     
     2   .000     23  1.900                                                     
  local pseudopotential read in
  partial core-charges read in
  atomic valenz-charges read in
  non local Contribution for L=           0  read in
    real space projection operators read in
  non local Contribution for L=           0  read in
    real space projection operators read in
  non local Contribution for L=           1  read in
    real space projection operators read in
  non local Contribution for L=           1  read in
    real space projection operators read in
    PAW grid and wavefunctions read in
 
   number of l-projection  operators is LMAX  =           4
   number of lm-projection operators is LMMAX =           8
 
  PAW_PBE W 08Apr2002                   :
 energy of atom  1       EATOM= -204.6103
 kinetic energy error for atom=    0.0205 (will be added to EATOM!!)
  PAW_PBE Cl 17Jan2003                  :
 energy of atom  2       EATOM= -409.7259
 kinetic energy error for atom=    0.0240 (will be added to EATOM!!)
 
 
 POSCAR: O dimer in a box                        
  positions in direct lattice
  velocities in cartesian coordinates
 exchange correlation table for  LEXCH =        8
   RHO(1)=    0.500       N(1)  =     2000
   RHO(2)=  100.500       N(2)  =     4000
 


--------------------------------------------------------------------------------------------------------


 ion  position               nearest neighbor table
   1  0.000  0.000  0.250-   2 3.01
   2  0.000  0.000  1.000-   1 3.01
 
  LATTYP: Found a simple cubic cell.
 ALAT       =    12.0000000000
  
  Lattice vectors:
  
 A1 = (  12.0000000000,   0.0000000000,   0.0000000000)
 A2 = (   0.0000000000,  12.0000000000,   0.0000000000)
 A3 = (   0.0000000000,   0.0000000000,  12.0000000000)


Analysis of symmetry for initial positions (statically):
=====================================================================
 Subroutine PRICEL returns:
 Original cell was already a primitive cell.
 

 Routine SETGRP: Setting up the symmetry group for a 
 simple cubic supercell.


 Subroutine GETGRP returns: Found  8 space group operations
 (whereof  8 operations were pure point group operations)
 out of a pool of 48 trial point group operations.


The static configuration has the point symmetry C_4v.


Analysis of symmetry for dynamics (positions and initial velocities):
=====================================================================
 Subroutine PRICEL returns:
 Original cell was already a primitive cell.
 

 Routine SETGRP: Setting up the symmetry group for a 
 simple cubic supercell.


 Subroutine GETGRP returns: Found  8 space group operations
 (whereof  8 operations were pure point group operations)
 out of a pool of 48 trial point group operations.


The dynamic configuration has the point symmetry C_4v.


Analysis of constrained symmetry for selective dynamics:
=====================================================================
 Subroutine PRICEL returns:
 Original cell was already a primitive cell.
 

 Routine SETGRP: Setting up the symmetry group for a 
 simple cubic supercell.


 Subroutine GETGRP returns: Found  8 space group operations
 (whereof  8 operations were pure point group operations)
 out of a pool of 48 trial point group operations.


The constrained configuration has the point symmetry C_4v.


Analysis of structural, dynamic, and magnetic symmetry:
=====================================================================
 Subroutine PRICEL returns:
 Original cell was already a primitive cell.
 

 Routine SETGRP: Setting up the symmetry group for a 
 simple cubic supercell.


 Subroutine GETGRP returns: Found  8 space group operations
 (whereof  8 operations were pure point group operations)
 out of a pool of 48 trial point group operations.


The magnetic configuration has the point symmetry C_4v.


 Subroutine INISYM returns: Found  8 space group operations
 (whereof  8 operations are pure point group operations),
 and found     1 'primitive' translations

 
 
 KPOINTS: Gamma-point only                        

Automatic generation of k-mesh.
Space group operators:
 irot       det(A)        alpha          n_x          n_y          n_z        tau_x        tau_y        tau_z
    1     1.000000     0.000000     1.000000     0.000000     0.000000     0.000000     0.000000     0.000000
    2     1.000000    90.000000     0.000000     0.000000    -1.000000     0.000000     0.000000     0.000000
    3     1.000000   180.000000     0.000000     0.000000     1.000000     0.000000     0.000000     0.000000
    4     1.000000    90.000000     0.000000     0.000000     1.000000     0.000000     0.000000     0.000000
    5    -1.000000   180.000000     1.000000     0.000000     0.000000     0.000000     0.000000     0.000000
    6    -1.000000   180.000000     0.707107     0.707107     0.000000     0.000000     0.000000     0.000000
    7    -1.000000   180.000000     0.000000     1.000000     0.000000     0.000000     0.000000     0.000000
    8    -1.000000   180.000000     0.707107    -0.707107     0.000000     0.000000     0.000000     0.000000
 
 Subroutine IBZKPT returns following result:
 ===========================================
 
 Found      6 irreducible k-points:
 
 Following reciprocal coordinates:
            Coordinates               Weight
  0.125000  0.125000  0.125000      8.000000
  0.375000  0.125000  0.125000     16.000000
  0.375000  0.375000  0.125000      8.000000
  0.125000  0.125000  0.375000      8.000000
  0.375000  0.125000  0.375000     16.000000
  0.375000  0.375000  0.375000      8.000000
 
 Following cartesian coordinates:
            Coordinates               Weight
  0.010417  0.010417  0.010417      8.000000
  0.031250  0.010417  0.010417     16.000000
  0.031250  0.031250  0.010417      8.000000
  0.010417  0.010417  0.031250      8.000000
  0.031250  0.010417  0.031250     16.000000
  0.031250  0.031250  0.031250      8.000000
 


--------------------------------------------------------------------------------------------------------




 Dimension of arrays:
   k-points           NKPTS =      6   k-points in BZ     NKDIM =      6   number of bands    NBANDS=     16
   number of dos      NEDOS =    301   number of ions     NIONS =      2
   non local maximal  LDIM  =      6   non local SUM 2l+1 LMDIM =     18
   total plane-waves  NPLWV = 125000
   max r-space proj   IRMAX =      1   max aug-charges    IRDMAX=   4328
   dimension x,y,z NGX =    50 NGY =   50 NGZ =   50
   dimension x,y,z NGXF=   100 NGYF=  100 NGZF=  100
   support grid    NGXF=   100 NGYF=  100 NGZF=  100
   ions per type =               1   1
   NGX,Y,Z   is equivalent  to a cutoff of   6.93,  6.93,  6.93 a.u.
   NGXF,Y,Z  is equivalent  to a cutoff of  13.85, 13.85, 13.85 a.u.

 SYSTEM =  Te                                      
 POSCAR =  O dimer in a box                        

 Startparameter for this run:
   NWRITE =      2    write-flag & timer
   PREC   = normal    normal or accurate (medium, high low for compatibility)
   ISTART =      0    job   : 0-new  1-cont  2-samecut
   ICHARG =      2    charge: 1-file 2-atom 10-const
   ISPIN  =      2    spin polarized calculation?
   LNONCOLLINEAR =      F non collinear calculations
   LSORBIT =      F    spin-orbit coupling
   INIWAV =      1    electr: 0-lowe 1-rand  2-diag
   LASPH  =      F    aspherical Exc in radial PAW
   METAGGA=      F    non-selfconsistent MetaGGA calc.

 Electronic Relaxation 1
   ENCUT  =  280.0 eV  20.58 Ry    4.54 a.u.  16.37 16.37 16.37*2*pi/ulx,y,z
   ENINI  =  280.0     initial cutoff
   ENAUG  =  373.4 eV  augmentation charge cutoff
   NELM   =     60;   NELMIN=  2; NELMDL= -5     # of ELM steps 
   EDIFF  = 0.1E-03   stopping-criterion for ELM
   LREAL  =      F    real-space projection
   NLSPLINE    = F    spline interpolate recip. space projectors
   LCOMPAT=      F    compatible to vasp.4.4
   GGA_COMPAT  = T    GGA compatible to vasp.4.4-vasp.4.6
   LMAXPAW     = -100 max onsite density
   LMAXMIX     =    2 max onsite mixed and CHGCAR
   VOSKOWN=      0    Vosko Wilk Nusair interpolation
   ROPT   =    0.00000   0.00000
 Ionic relaxation
   EDIFFG = 0.1E-02   stopping-criterion for IOM
   NSW    =    100    number of steps for IOM
   NBLOCK =      1;   KBLOCK =    100    inner block; outer block 
   IBRION =      2    ionic relax: 0-MD 1-quasi-New 2-CG
   NFREE  =      1    steps in history (QN), initial steepest desc. (CG)
   ISIF   =      2    stress and relaxation
   IWAVPR =     11    prediction:  0-non 1-charg 2-wave 3-comb
   ISYM   =      2    0-nonsym 1-usesym 2-fastsym
   LCORR  =      T    Harris-Foulkes like correction to forces

   POTIM  = 0.5000    time-step for ionic-motion
   TEIN   =    0.0    initial temperature
   TEBEG  =    0.0;   TEEND  =   0.0 temperature during run
   SMASS  =  -3.00    Nose mass-parameter (am)
   estimated Nose-frequenzy (Omega)   =  0.10E-29 period in steps =****** mass=  -0.329E-26a.u.
   SCALEE = 1.0000    scale energy and forces
   NPACO  =    256;   APACO  = 16.0  distance and # of slots for P.C.
   PSTRESS=    0.0 pullay stress

  Mass of Ions in am
   POMASS = 183.85 35.45
  Ionic Valenz
   ZVAL   =   6.00  7.00
  Atomic Wigner-Seitz radii
   RWIGS  =  -1.00 -1.00
  virtual crystal weights 
   VCA    =   1.00  1.00
   NELECT =      13.0000    total number of electrons
   NUPDOWN=      -1.0000    fix difference up-down

 DOS related values:
   EMIN   =  10.00;   EMAX   =-10.00  energy-range for DOS
   EFERMI =   0.00
   ISMEAR =     0;   SIGMA  =   0.20  broadening in eV -4-tet -1-fermi 0-gaus

 Electronic relaxation 2 (details)
   IALGO  =     38    algorithm
   LDIAG  =      T    sub-space diagonalisation (order eigenvalues)
   LSUBROT=      F    optimize rotation matrix (better conditioning)
   TURBO    =      0    0=normal 1=particle mesh
   IRESTART =      0    0=no restart 2=restart with 2 vectors
   NREBOOT  =      0    no. of reboots
   NMIN     =      0    reboot dimension
   EREF     =   0.00    reference energy to select bands
   IMIX   =      4    mixing-type and parameters
     AMIX     =   0.40;   BMIX     =  1.00
     AMIX_MAG =   1.60;   BMIX_MAG =  1.00
     AMIN     =   0.10
     WC   =   100.;   INIMIX=   1;  MIXPRE=   1;  MAXMIX= -45

 Intra band minimization:
   WEIMIN = 0.0010     energy-eigenvalue tresh-hold
   EBREAK =  0.16E-05  absolut break condition
   DEPER  =   0.30     relativ break condition  

   TIME   =   0.40     timestep for ELM

  volume/ion in A,a.u.               =     864.00      5830.56
  Fermi-wavevector in a.u.,A,eV,Ry     =   0.320781  0.606187  1.400042  0.102900
  Thomas-Fermi vector in A             =   1.207697
 
 Write flags
   LWAVE        =      T    write WAVECAR
   LDOWNSAMPLE  =      F    k-point downsampling of WAVECAR
   LCHARG       =      T    write CHGCAR
   LVTOT        =      F    write LOCPOT, total local potential
   LVHAR        =      F    write LOCPOT, Hartree potential only
   LELF         =      F    write electronic localiz. function (ELF)
   LORBIT       =      0    0 simple, 1 ext, 2 COOP (PROOUT), +10 PAW based schemes


 Dipole corrections
   LMONO  =      F    monopole corrections only (constant potential shift)
   LDIPOL =      F    correct potential (dipole corrections)
   IDIPOL =      0    1-x, 2-y, 3-z, 4-all directions 
   EPSILON=  1.0000000 bulk dielectric constant

 Exchange correlation treatment:
   GGA     =    --    GGA type
   LEXCH   =     8    internal setting for exchange type
   VOSKOWN=      0    Vosko Wilk Nusair interpolation
   LHFCALC =     F    Hartree Fock is set to
   LHFONE  =     F    Hartree Fock one center treatment
   AEXX    =    0.0000 exact exchange contribution

 Linear response parameters
   LEPSILON=     F    determine dielectric tensor
   LRPA    =     F    only Hartree local field effects (RPA)
   LNABLA  =     F    use nabla operator in PAW spheres
   LVEL    =     F    velocity operator in full k-point grid
   LINTERFAST=   F  fast interpolation
   KINTER  =     0    interpolate to denser k-point grid
   CSHIFT  =0.1000    complex shift for real part using Kramers Kronig
   OMEGAMAX=  -1.0    maximum frequency
   DEG_THRESHOLD= 0.2000000E-02 threshold for treating states as degnerate
   RTIME   =   -0.100 relaxation time in fs
  (WPLASMAI=    0.000 imaginary part of plasma frequency in eV, 0.658/RTIME)
   DFIELD  = 0.0000000 0.0000000 0.0000000 field for delta impulse in time
 
 Orbital magnetization related:
   ORBITALMAG=     F  switch on orbital magnetization
   LCHIMAG   =     F  perturbation theory with respect to B field
   DQ        =  0.001000  dq finite difference perturbation B field
   LLRAUG    =     F  two centre corrections for induced B field



--------------------------------------------------------------------------------------------------------


 conjugate gradient relaxation of ions
   using selective dynamics as specified on POSCAR
 charge density and potential will be updated during run
 spin polarized calculation
 Variant of blocked Davidson
 Davidson routine will perform the subspace rotation
 perform sub-space diagonalisation
    after iterative eigenvector-optimisation
 modified Broyden-mixing scheme, WC =      100.0
 initial mixing is a Kerker type mixing with AMIX =  0.4000 and BMIX =      1.0000
 Hartree-type preconditioning will be used
 using additional bands            9
 reciprocal scheme for non local part
 use partial core corrections
 calculate Harris-corrections to forces 
   (improved forces if not selfconsistent)
 use gradient corrections 
 use of overlap-Matrix (Vanderbilt PP)
 Gauss-broadening in eV      SIGMA  =   0.20


--------------------------------------------------------------------------------------------------------


  energy-cutoff  :      280.00
  volume of cell :     1728.00
      direct lattice vectors                 reciprocal lattice vectors
    12.000000000  0.000000000  0.000000000     0.083333333  0.000000000  0.000000000
     0.000000000 12.000000000  0.000000000     0.000000000  0.083333333  0.000000000
     0.000000000  0.000000000 12.000000000     0.000000000  0.000000000  0.083333333

  length of vectors
    12.000000000 12.000000000 12.000000000     0.083333333  0.083333333  0.083333333


 
 k-points in units of 2pi/SCALE and weight: Gamma-point only                        
   0.01041667  0.01041667  0.01041667       0.125
   0.03125000  0.01041667  0.01041667       0.250
   0.03125000  0.03125000  0.01041667       0.125
   0.01041667  0.01041667  0.03125000       0.125
   0.03125000  0.01041667  0.03125000       0.250
   0.03125000  0.03125000  0.03125000       0.125
 
 k-points in reciprocal lattice and weights: Gamma-point only                        
   0.12500000  0.12500000  0.12500000       0.125
   0.37500000  0.12500000  0.12500000       0.250
   0.37500000  0.37500000  0.12500000       0.125
   0.12500000  0.12500000  0.37500000       0.125
   0.37500000  0.12500000  0.37500000       0.250
   0.37500000  0.37500000  0.37500000       0.125
 
 position of ions in fractional coordinates (direct lattice) 
   0.00000000  0.00000000  0.25035818
   0.00000000  0.00000000  0.99964182
 
 position of ions in cartesian coordinates  (Angst):
   0.00000000  0.00000000  3.00429818
   0.00000000  0.00000000 11.99570182
 


--------------------------------------------------------------------------------------------------------


 k-point  1 :   0.1250 0.1250 0.1250  plane waves:   18382
 k-point  2 :   0.3750 0.1250 0.1250  plane waves:   18373
 k-point  3 :   0.3750 0.3750 0.1250  plane waves:   18391
 k-point  4 :   0.1250 0.1250 0.3750  plane waves:   18373
 k-point  5 :   0.3750 0.1250 0.3750  plane waves:   18391
 k-point  6 :   0.3750 0.3750 0.3750  plane waves:   18352

 maximum and minimum number of plane-waves per node :     18391    18352

 maximum number of plane-waves:     18391
 maximum index in each direction: 
   IXMAX=   16   IYMAX=   16   IZMAX=   16
   IXMIN=  -16   IYMIN=  -16   IZMIN=  -16


 serial   3D FFT for wavefunctions
 parallel 3D FFT for charge:
    minimum data exchange during FFTs selected (reduces bandwidth)


 total amount of memory used by VASP MPI-rank0    84617. kBytes
=======================================================================

   base      :      30000. kBytes
   nonl-proj :      32384. kBytes
   fftplans  :       2864. kBytes
   grid      :      15769. kBytes
   one-center:         62. kBytes
   wavefun   :       3538. kBytes
 
     INWAV:  cpu time    0.0000: real time    0.0000
 Broyden mixing: mesh for mixing (old mesh)
   NGX = 33   NGY = 33   NGZ = 33
  (NGX  =100   NGY  =100   NGZ  =100)
  gives a total of  35937 points

 initial charge density was supplied:
 charge density of overlapping atoms calculated
 number of electron      13.0000000 magnetization       2.0000000
 keeping initial charge density in first step


--------------------------------------------------------------------------------------------------------


 Maximum index for augmentation-charges          549 (set IRDMAX)


--------------------------------------------------------------------------------------------------------


 First call to EWALD:  gamma=   0.148
 Maximum number of real-space cells 3x 3x 3
 Maximum number of reciprocal cells 3x 3x 3

    FEWALD:  cpu time    0.0009: real time    0.0009


--------------------------------------- Iteration      1(   1)  ---------------------------------------


    POTLOK:  cpu time    0.0648: real time    0.0675
    SETDIJ:  cpu time    0.0037: real time    0.0037
     EDDAV:  cpu time    0.2643: real time    0.2800
       DOS:  cpu time    0.0005: real time    0.0006
    --------------------------------------------
      LOOP:  cpu time    0.3333: real time    0.3518

 eigenvalue-minimisations  :   384
 total energy-change (2. order) : 0.5940715E+02  (-0.1515507E+03)
 number of electron      13.0000000 magnetization       2.0000000
 augmentation part       13.0000000 magnetization       2.0000000

 Free energy of the ion-electron system (eV)
  ---------------------------------------------------
  alpha Z        PSCENC =         1.14083675
  Ewald energy   TEWEN  =       -79.41283234
  -Hartree energ DENC   =      -459.64335937
  -exchange      EXHF   =         0.00000000
  -V(xc)+E(xc)   XCENC  =       -30.95695044
  PAW double counting   =       440.21364036     -381.18693681
  entropy T*S    EENTRO =        -0.14668979
  eigenvalues    EBANDS =       -44.89227459
  atomic energy  EATOM  =       614.29171532
  Solvation  Ediel_sol  =         0.00000000
  ---------------------------------------------------
  free energy    TOTEN  =        59.40714910 eV

  energy without entropy =       59.55383888  energy(sigma->0) =       59.48049399


--------------------------------------------------------------------------------------------------------




--------------------------------------- Iteration      1(   2)  ---------------------------------------


     EDDAV:  cpu time    0.4479: real time    0.4558
       DOS:  cpu time    0.0004: real time    0.0004
    --------------------------------------------
      LOOP:  cpu time    0.4483: real time    0.4562

 eigenvalue-minimisations  :   768
 total energy-change (2. order) :-0.5634560E+02  (-0.5616785E+02)
 number of electron      13.0000000 magnetization       2.0000000
 augmentation part       13.0000000 magnetization       2.0000000

 Free energy of the ion-electron system (eV)
  ---------------------------------------------------
  alpha Z        PSCENC =         1.14083675
  Ewald energy   TEWEN  =       -79.41283234
  -Hartree energ DENC   =      -459.64335937
  -exchange      EXHF   =         0.00000000
  -V(xc)+E(xc)   XCENC  =       -30.95695044
  PAW double counting   =       440.21364036     -381.18693681
  entropy T*S    EENTRO =        -0.08741248
  eigenvalues    EBANDS =      -101.29715301
  atomic energy  EATOM  =       614.29171532
  Solvation  Ediel_sol  =         0.00000000
  ---------------------------------------------------
  free energy    TOTEN  =         3.06154798 eV

  energy without entropy =        3.14896046  energy(sigma->0) =        3.10525422


--------------------------------------------------------------------------------------------------------




--------------------------------------- Iteration      1(   3)  ---------------------------------------


     EDDAV:  cpu time    0.3909: real time    0.3941
       DOS:  cpu time    0.0005: real time    0.0004
    --------------------------------------------
      LOOP:  cpu time    0.3914: real time    0.3946

 eigenvalue-minimisations  :   688
 total energy-change (2. order) :-0.1071902E+02  (-0.1021105E+02)
 number of electron      13.0000000 magnetization       2.0000000
 augmentation part       13.0000000 magnetization       2.0000000

 Free energy of the ion-electron system (eV)
  ---------------------------------------------------
  alpha Z        PSCENC =         1.14083675
  Ewald energy   TEWEN  =       -79.41283234
  -Hartree energ DENC   =      -459.64335937
  -exchange      EXHF   =         0.00000000
  -V(xc)+E(xc)   XCENC  =       -30.95695044
  PAW double counting   =       440.21364036     -381.18693681
  entropy T*S    EENTRO =        -0.19575016
  eigenvalues    EBANDS =      -111.90783190
  atomic energy  EATOM  =       614.29171532
  Solvation  Ediel_sol  =         0.00000000
  ---------------------------------------------------
  free energy    TOTEN  =        -7.65746858 eV

  energy without entropy =       -7.46171842  energy(sigma->0) =       -7.55959350


--------------------------------------------------------------------------------------------------------




--------------------------------------- Iteration      1(   4)  ---------------------------------------


     EDDAV:  cpu time    0.2361: real time    0.2374
       DOS:  cpu time    0.0015: real time    0.0015
    --------------------------------------------
      LOOP:  cpu time    0.2376: real time    0.2389

 eigenvalue-minimisations  :   384
 total energy-change (2. order) :-0.2397512E+00  (-0.2131484E+00)
 number of electron      13.0000000 magnetization       2.0000000
 augmentation part       13.0000000 magnetization       2.0000000

 Free energy of the ion-electron system (eV)
  ---------------------------------------------------
  alpha Z        PSCENC =         1.14083675
  Ewald energy   TEWEN  =       -79.41283234
  -Hartree energ DENC   =      -459.64335937
  -exchange      EXHF   =         0.00000000
  -V(xc)+E(xc)   XCENC  =       -30.95695044
  PAW double counting   =       440.21364036     -381.18693681
  entropy T*S    EENTRO =        -0.23186097
  eigenvalues    EBANDS =      -112.11147226
  atomic energy  EATOM  =       614.29171532
  Solvation  Ediel_sol  =         0.00000000
  ---------------------------------------------------
  free energy    TOTEN  =        -7.89721976 eV

  energy without entropy =       -7.66535879  energy(sigma->0) =       -7.78128927


--------------------------------------------------------------------------------------------------------




--------------------------------------- Iteration      1(   5)  ---------------------------------------


     EDDAV:  cpu time    0.3615: real time    0.3641
       DOS:  cpu time    0.0004: real time    0.0004
    CHARGE:  cpu time    0.0450: real time    0.0464
    MIXING:  cpu time    0.0016: real time    0.0017
    --------------------------------------------
      LOOP:  cpu time    0.4087: real time    0.4127

 eigenvalue-minimisations  :   640
 total energy-change (2. order) :-0.8401548E-02  (-0.8380287E-02)
 number of electron      13.0000052 magnetization       2.3411682
 augmentation part       -0.5267943 magnetization      -0.1323646

 Broyden mixing:
  rms(total) = 0.87044E+00    rms(broyden)= 0.86989E+00
  rms(prec ) = 0.11351E+01
  weight for this iteration     100.00

 Free energy of the ion-electron system (eV)
  ---------------------------------------------------
  alpha Z        PSCENC =         1.14083675
  Ewald energy   TEWEN  =       -79.41283234
  -Hartree energ DENC   =      -459.64335937
  -exchange      EXHF   =         0.00000000
  -V(xc)+E(xc)   XCENC  =       -30.95695044
  PAW double counting   =       440.21364036     -381.18693681
  entropy T*S    EENTRO =        -0.23160695
  eigenvalues    EBANDS =      -112.12012783
  atomic energy  EATOM  =       614.29171532
  Solvation  Ediel_sol  =         0.00000000
  ---------------------------------------------------
  free energy    TOTEN  =        -7.90562130 eV

  energy without entropy =       -7.67401436  energy(sigma->0) =       -7.78981783


--------------------------------------------------------------------------------------------------------




--------------------------------------- Iteration      1(   6)  ---------------------------------------


    POTLOK:  cpu time    0.0611: real time    0.0614
    SETDIJ:  cpu time    0.0033: real time    0.0033
     EDDAV:  cpu time    0.2342: real time    0.2373
       DOS:  cpu time    0.0006: real time    0.0006
    CHARGE:  cpu time    0.0423: real time    0.0442
    MIXING:  cpu time    0.0017: real time    0.0056
    --------------------------------------------
      LOOP:  cpu time    0.3431: real time    0.3525

 eigenvalue-minimisations  :   384
 total energy-change (2. order) : 0.3856914E+01  (-0.2000810E+01)
 number of electron      13.0000041 magnetization       2.9542430
 augmentation part       -0.0673918 magnetization      -0.8444157

 Broyden mixing:
  rms(total) = 0.60313E+00    rms(broyden)= 0.60282E+00
  rms(prec ) = 0.66887E+00
  weight for this iteration     100.00

 eigenvalues of (default mixing * dielectric matrix)
  average eigenvalue GAMMA=   0.7977
  0.7977

 Free energy of the ion-electron system (eV)
  ---------------------------------------------------
  alpha Z        PSCENC =         1.14083675
  Ewald energy   TEWEN  =       -79.41283234
  -Hartree energ DENC   =      -460.98129362
  -exchange      EXHF   =         0.00000000
  -V(xc)+E(xc)   XCENC  =       -27.55003830
  PAW double counting   =       436.53249739     -378.22342631
  entropy T*S    EENTRO =        -0.08753136
  eigenvalues    EBANDS =      -109.75863488
  atomic energy  EATOM  =       614.29171532
  Solvation  Ediel_sol  =         0.00000000
  ---------------------------------------------------
  free energy    TOTEN  =        -4.04870735 eV

  energy without entropy =       -3.96117599  energy(sigma->0) =       -4.00494167


--------------------------------------------------------------------------------------------------------




--------------------------------------- Iteration      1(   7)  ---------------------------------------


    POTLOK:  cpu time    0.0589: real time    0.0592
    SETDIJ:  cpu time    0.0031: real time    0.0031
     EDDAV:  cpu time    0.2910: real time    0.2956
       DOS:  cpu time    0.0003: real time    0.0003
    CHARGE:  cpu time    0.0420: real time    0.0427
    MIXING:  cpu time    0.0014: real time    0.0025
    --------------------------------------------
      LOOP:  cpu time    0.3968: real time    0.4035

 eigenvalue-minimisations  :   496
 total energy-change (2. order) : 0.2181950E+01  (-0.2678204E+00)
 number of electron      13.0000040 magnetization       3.6416385
 augmentation part       -0.0414513 magnetization      -0.4331191

 Broyden mixing:
  rms(total) = 0.34663E+00    rms(broyden)= 0.34659E+00
  rms(prec ) = 0.43653E+00
  weight for this iteration     100.00

 eigenvalues of (default mixing * dielectric matrix)
  average eigenvalue GAMMA=   0.9313
  0.9313  0.9313

 Free energy of the ion-electron system (eV)
  ---------------------------------------------------
  alpha Z        PSCENC =         1.14083675
  Ewald energy   TEWEN  =       -79.41283234
  -Hartree energ DENC   =      -463.85424058
  -exchange      EXHF   =         0.00000000
  -V(xc)+E(xc)   XCENC  =       -24.37183805
  PAW double counting   =       434.26371873     -375.89318422
  entropy T*S    EENTRO =        -0.01111672
  eigenvalues    EBANDS =      -108.01981624
  atomic energy  EATOM  =       614.29171532
  Solvation  Ediel_sol  =         0.00000000
  ---------------------------------------------------
  free energy    TOTEN  =        -1.86675734 eV

  energy without entropy =       -1.85564062  energy(sigma->0) =       -1.86119898


--------------------------------------------------------------------------------------------------------




--------------------------------------- Iteration      1(   8)  ---------------------------------------


    POTLOK:  cpu time    0.0589: real time    0.0592
    SETDIJ:  cpu time    0.0031: real time    0.0031
     EDDAV:  cpu time    0.2780: real time    0.2811
       DOS:  cpu time    0.0006: real time    0.0006
    CHARGE:  cpu time    0.0439: real time    0.0448
    MIXING:  cpu time    0.0016: real time    0.0021
    --------------------------------------------
      LOOP:  cpu time    0.3862: real time    0.3908

 eigenvalue-minimisations  :   480
 total energy-change (2. order) :-0.1146077E+01  (-0.1606735E+00)
 number of electron      13.0000044 magnetization       4.1651365
 augmentation part       -0.1194493 magnetization      -0.0015014

 Broyden mixing:
  rms(total) = 0.19088E+00    rms(broyden)= 0.19068E+00
  rms(prec ) = 0.24396E+00
  weight for this iteration     100.00

 eigenvalues of (default mixing * dielectric matrix)
  average eigenvalue GAMMA=   0.9203
  1.0356  1.0356  0.6896

 Free energy of the ion-electron system (eV)
  ---------------------------------------------------
  alpha Z        PSCENC =         1.14083675
  Ewald energy   TEWEN  =       -79.41283234
  -Hartree energ DENC   =      -468.89121151
  -exchange      EXHF   =         0.00000000
  -V(xc)+E(xc)   XCENC  =       -24.69522825
  PAW double counting   =       457.45386227     -398.89152244
  entropy T*S    EENTRO =        -0.00753808
  eigenvalues    EBANDS =      -104.00091579
  atomic energy  EATOM  =       614.29171532
  Solvation  Ediel_sol  =         0.00000000
  ---------------------------------------------------
  free energy    TOTEN  =        -3.01283407 eV

  energy without entropy =       -3.00529599  energy(sigma->0) =       -3.00906503


--------------------------------------------------------------------------------------------------------




--------------------------------------- Iteration      1(   9)  ---------------------------------------


    POTLOK:  cpu time    0.0592: real time    0.0597
    SETDIJ:  cpu time    0.0031: real time    0.0031
     EDDAV:  cpu time    0.3335: real time    0.3359
       DOS:  cpu time    0.0005: real time    0.0005
    CHARGE:  cpu time    0.0419: real time    0.0426
    MIXING:  cpu time    0.0017: real time    0.0017
    --------------------------------------------
      LOOP:  cpu time    0.4399: real time    0.4436

 eigenvalue-minimisations  :   544
 total energy-change (2. order) :-0.1451258E+01  (-0.9549678E-01)
 number of electron      13.0000046 magnetization       4.5779870
 augmentation part       -0.1525174 magnetization       0.3614871

 Broyden mixing:
  rms(total) = 0.12430E+00    rms(broyden)= 0.12417E+00
  rms(prec ) = 0.16560E+00
  weight for this iteration     100.00

 eigenvalues of (default mixing * dielectric matrix)
  average eigenvalue GAMMA=   1.0356
  1.1455  1.1455  1.2334  0.6178

 Free energy of the ion-electron system (eV)
  ---------------------------------------------------
  alpha Z        PSCENC =         1.14083675
  Ewald energy   TEWEN  =       -79.41283234
  -Hartree energ DENC   =      -471.77690142
  -exchange      EXHF   =         0.00000000
  -V(xc)+E(xc)   XCENC  =       -25.40517626
  PAW double counting   =       452.66015694     -394.06906072
  entropy T*S    EENTRO =        -0.00607799
  eigenvalues    EBANDS =      -101.88675210
  atomic energy  EATOM  =       614.29171532
  Solvation  Ediel_sol  =         0.00000000
  ---------------------------------------------------
  free energy    TOTEN  =        -4.46409182 eV

  energy without entropy =       -4.45801384  energy(sigma->0) =       -4.46105283


--------------------------------------------------------------------------------------------------------




--------------------------------------- Iteration      1(  10)  ---------------------------------------


    POTLOK:  cpu time    0.0598: real time    0.0601
    SETDIJ:  cpu time    0.0033: real time    0.0033
     EDDAV:  cpu time    0.2342: real time    0.2352
       DOS:  cpu time    0.0003: real time    0.0003
    CHARGE:  cpu time    0.0379: real time    0.0385
    MIXING:  cpu time    0.0015: real time    0.0016
    --------------------------------------------
      LOOP:  cpu time    0.3371: real time    0.3391

 eigenvalue-minimisations  :   384
 total energy-change (2. order) :-0.1495377E+01  (-0.8001960E-01)
 number of electron      13.0000045 magnetization       4.7827577
 augmentation part       -0.1451188 magnetization       0.5695643

 Broyden mixing:
  rms(total) = 0.64580E-01    rms(broyden)= 0.64530E-01
  rms(prec ) = 0.90629E-01
  weight for this iteration     100.00

 eigenvalues of (default mixing * dielectric matrix)
  average eigenvalue GAMMA=   1.0942
  1.6358  1.1208  1.1208  0.9662  0.6273

 Free energy of the ion-electron system (eV)
  ---------------------------------------------------
  alpha Z        PSCENC =         1.14083675
  Ewald energy   TEWEN  =       -79.41283234
  -Hartree energ DENC   =      -472.42316256
  -exchange      EXHF   =         0.00000000
  -V(xc)+E(xc)   XCENC  =       -26.50295010
  PAW double counting   =       454.45287398     -395.88676231
  entropy T*S    EENTRO =        -0.00993575
  eigenvalues    EBANDS =      -101.60925227
  atomic energy  EATOM  =       614.29171532
  Solvation  Ediel_sol  =         0.00000000
  ---------------------------------------------------
  free energy    TOTEN  =        -5.95946928 eV

  energy without entropy =       -5.94953353  energy(sigma->0) =       -5.95450141


--------------------------------------------------------------------------------------------------------




--------------------------------------- Iteration      1(  11)  ---------------------------------------


    POTLOK:  cpu time    0.0590: real time    0.0593
    SETDIJ:  cpu time    0.0031: real time    0.0031
     EDDAV:  cpu time    0.2303: real time    0.2312
       DOS:  cpu time    0.0004: real time    0.0004
    CHARGE:  cpu time    0.0403: real time    0.0405
    MIXING:  cpu time    0.0016: real time    0.0016
    --------------------------------------------
      LOOP:  cpu time    0.3348: real time    0.3362

 eigenvalue-minimisations  :   384
 total energy-change (2. order) :-0.9959551E+00  (-0.4380129E-01)
 number of electron      13.0000044 magnetization       4.8675276
 augmentation part       -0.1464173 magnetization       0.6585264

 Broyden mixing:
  rms(total) = 0.39572E-01    rms(broyden)= 0.39519E-01
  rms(prec ) = 0.59131E-01
  weight for this iteration     100.00

 eigenvalues of (default mixing * dielectric matrix)
  average eigenvalue GAMMA=   1.1462
  1.7558  1.4050  1.0939  1.0939  0.9083  0.6203

 Free energy of the ion-electron system (eV)
  ---------------------------------------------------
  alpha Z        PSCENC =         1.14083675
  Ewald energy   TEWEN  =       -79.41283234
  -Hartree energ DENC   =      -471.68710753
  -exchange      EXHF   =         0.00000000
  -V(xc)+E(xc)   XCENC  =       -27.36943815
  PAW double counting   =       453.57347945     -394.98261198
  entropy T*S    EENTRO =        -0.01669020
  eigenvalues    EBANDS =      -102.49277571
  atomic energy  EATOM  =       614.29171532
  Solvation  Ediel_sol  =         0.00000000
  ---------------------------------------------------
  free energy    TOTEN  =        -6.95542440 eV

  energy without entropy =       -6.93873420  energy(sigma->0) =       -6.94707930


--------------------------------------------------------------------------------------------------------




--------------------------------------- Iteration      1(  12)  ---------------------------------------


    POTLOK:  cpu time    0.0588: real time    0.0591
    SETDIJ:  cpu time    0.0031: real time    0.0031
     EDDAV:  cpu time    0.3256: real time    0.3268
       DOS:  cpu time    0.0007: real time    0.0007
    CHARGE:  cpu time    0.0393: real time    0.0394
    MIXING:  cpu time    0.0023: real time    0.0023
    --------------------------------------------
      LOOP:  cpu time    0.4298: real time    0.4314

 eigenvalue-minimisations  :   576
 total energy-change (2. order) :-0.4215195E+00  (-0.1163561E-01)
 number of electron      13.0000045 magnetization       4.9912407
 augmentation part       -0.1496161 magnetization       0.7822294

 Broyden mixing:
  rms(total) = 0.19793E-01    rms(broyden)= 0.19784E-01
  rms(prec ) = 0.38068E-01
  weight for this iteration     100.00

 eigenvalues of (default mixing * dielectric matrix)
  average eigenvalue GAMMA=   1.1868
  1.9761  1.5830  1.0422  1.0422  1.2371  0.6245  0.8029

 Free energy of the ion-electron system (eV)
  ---------------------------------------------------
  alpha Z        PSCENC =         1.14083675
  Ewald energy   TEWEN  =       -79.41283234
  -Hartree energ DENC   =      -470.45991525
  -exchange      EXHF   =         0.00000000
  -V(xc)+E(xc)   XCENC  =       -27.82689630
  PAW double counting   =       451.22412495     -392.61319554
  entropy T*S    EENTRO =        -0.01406622
  eigenvalues    EBANDS =      -103.70671526
  atomic energy  EATOM  =       614.29171532
  Solvation  Ediel_sol  =         0.00000000
  ---------------------------------------------------
  free energy    TOTEN  =        -7.37694390 eV

  energy without entropy =       -7.36287767  energy(sigma->0) =       -7.36991079


--------------------------------------------------------------------------------------------------------




--------------------------------------- Iteration      1(  13)  ---------------------------------------


    POTLOK:  cpu time    0.0593: real time    0.0597
    SETDIJ:  cpu time    0.0031: real time    0.0031
     EDDAV:  cpu time    0.2979: real time    0.2999
       DOS:  cpu time    0.0005: real time    0.0005
    CHARGE:  cpu time    0.0380: real time    0.0387
    MIXING:  cpu time    0.0021: real time    0.0021
    --------------------------------------------
      LOOP:  cpu time    0.4009: real time    0.4039

 eigenvalue-minimisations  :   528
 total energy-change (2. order) :-0.1170654E+00  (-0.5767131E-02)
 number of electron      13.0000044 magnetization       5.0124858
 augmentation part       -0.1424277 magnetization       0.8097751

 Broyden mixing:
  rms(total) = 0.15706E-01    rms(broyden)= 0.15667E-01
  rms(prec ) = 0.24687E-01
  weight for this iteration     100.00

 eigenvalues of (default mixing * dielectric matrix)
  average eigenvalue GAMMA=   1.1949
  2.0815  2.0815  1.0836  1.0836  0.9537  0.9537  0.6608  0.6608

 Free energy of the ion-electron system (eV)
  ---------------------------------------------------
  alpha Z        PSCENC =         1.14083675
  Ewald energy   TEWEN  =       -79.41283234
  -Hartree energ DENC   =      -469.95019633
  -exchange      EXHF   =         0.00000000
  -V(xc)+E(xc)   XCENC  =       -27.90766858
  PAW double counting   =       449.77642637     -391.15371198
  entropy T*S    EENTRO =        -0.01032335
  eigenvalues    EBANDS =      -104.26825513
  atomic energy  EATOM  =       614.29171532
  Solvation  Ediel_sol  =         0.00000000
  ---------------------------------------------------
  free energy    TOTEN  =        -7.49400927 eV

  energy without entropy =       -7.48368592  energy(sigma->0) =       -7.48884760


--------------------------------------------------------------------------------------------------------




--------------------------------------- Iteration      1(  14)  ---------------------------------------


    POTLOK:  cpu time    0.0589: real time    0.0592
    SETDIJ:  cpu time    0.0032: real time    0.0032
     EDDAV:  cpu time    0.2612: real time    0.2621
       DOS:  cpu time    0.0003: real time    0.0003
    CHARGE:  cpu time    0.0374: real time    0.0380
    MIXING:  cpu time    0.0019: real time    0.0019
    --------------------------------------------
      LOOP:  cpu time    0.3629: real time    0.3647

 eigenvalue-minimisations  :   432
 total energy-change (2. order) :-0.1522915E-01  (-0.3972582E-03)
 number of electron      13.0000044 magnetization       5.0227706
 augmentation part       -0.1429248 magnetization       0.8200518

 Broyden mixing:
  rms(total) = 0.92347E-02    rms(broyden)= 0.92313E-02
  rms(prec ) = 0.17554E-01
  weight for this iteration     100.00

 eigenvalues of (default mixing * dielectric matrix)
  average eigenvalue GAMMA=   1.2391
  2.2680  2.2680  1.2974  1.2974  0.8835  0.8835  0.9868  0.6334  0.6334

 Free energy of the ion-electron system (eV)
  ---------------------------------------------------
  alpha Z        PSCENC =         1.14083675
  Ewald energy   TEWEN  =       -79.41283234
  -Hartree energ DENC   =      -469.78389959
  -exchange      EXHF   =         0.00000000
  -V(xc)+E(xc)   XCENC  =       -27.93370028
  PAW double counting   =       449.31063319     -390.67667923
  entropy T*S    EENTRO =        -0.01036237
  eigenvalues    EBANDS =      -104.43494987
  atomic energy  EATOM  =       614.29171532
  Solvation  Ediel_sol  =         0.00000000
  ---------------------------------------------------
  free energy    TOTEN  =        -7.50923842 eV

  energy without entropy =       -7.49887605  energy(sigma->0) =       -7.50405723


--------------------------------------------------------------------------------------------------------




--------------------------------------- Iteration      1(  15)  ---------------------------------------


    POTLOK:  cpu time    0.0591: real time    0.0595
    SETDIJ:  cpu time    0.0032: real time    0.0032
     EDDAV:  cpu time    0.2518: real time    0.2527
       DOS:  cpu time    0.0003: real time    0.0003
    CHARGE:  cpu time    0.0373: real time    0.0380
    MIXING:  cpu time    0.0021: real time    0.0021
    --------------------------------------------
      LOOP:  cpu time    0.3538: real time    0.3558

 eigenvalue-minimisations  :   432
 total energy-change (2. order) :-0.5676870E-02  (-0.3308209E-03)
 number of electron      13.0000044 magnetization       5.0229165
 augmentation part       -0.1444484 magnetization       0.8194404

 Broyden mixing:
  rms(total) = 0.47026E-02    rms(broyden)= 0.47012E-02
  rms(prec ) = 0.11160E-01
  weight for this iteration     100.00

 eigenvalues of (default mixing * dielectric matrix)
  average eigenvalue GAMMA=   1.2865
  2.8043  2.2648  1.4224  1.4224  0.9305  0.9305  0.9222  0.9222  0.6230  0.6230

 Free energy of the ion-electron system (eV)
  ---------------------------------------------------
  alpha Z        PSCENC =         1.14083675
  Ewald energy   TEWEN  =       -79.41283234
  -Hartree energ DENC   =      -469.54830457
  -exchange      EXHF   =         0.00000000
  -V(xc)+E(xc)   XCENC  =       -27.96246771
  PAW double counting   =       449.02273744     -390.37442670
  entropy T*S    EENTRO =        -0.01049006
  eigenvalues    EBANDS =      -104.66168341
  atomic energy  EATOM  =       614.29171532
  Solvation  Ediel_sol  =         0.00000000
  ---------------------------------------------------
  free energy    TOTEN  =        -7.51491529 eV

  energy without entropy =       -7.50442523  energy(sigma->0) =       -7.50967026


--------------------------------------------------------------------------------------------------------




--------------------------------------- Iteration      1(  16)  ---------------------------------------


    POTLOK:  cpu time    0.0587: real time    0.0590
    SETDIJ:  cpu time    0.0031: real time    0.0032
     EDDAV:  cpu time    0.2857: real time    0.2867
       DOS:  cpu time    0.0008: real time    0.0008
    CHARGE:  cpu time    0.0375: real time    0.0376
    MIXING:  cpu time    0.0027: real time    0.0030
    --------------------------------------------
      LOOP:  cpu time    0.3885: real time    0.3902

 eigenvalue-minimisations  :   496
 total energy-change (2. order) :-0.1889786E-02  (-0.1589287E-03)
 number of electron      13.0000044 magnetization       5.0094324
 augmentation part       -0.1438313 magnetization       0.8063508

 Broyden mixing:
  rms(total) = 0.34680E-02    rms(broyden)= 0.34623E-02
  rms(prec ) = 0.68516E-02
  weight for this iteration     100.00

 eigenvalues of (default mixing * dielectric matrix)
  average eigenvalue GAMMA=   1.3251
  3.4579  2.2952  1.4933  1.4933  0.9338  0.9338  0.9800  0.9800  0.7533  0.6278
  0.6278

 Free energy of the ion-electron system (eV)
  ---------------------------------------------------
  alpha Z        PSCENC =         1.14083675
  Ewald energy   TEWEN  =       -79.41283234
  -Hartree energ DENC   =      -469.42682289
  -exchange      EXHF   =         0.00000000
  -V(xc)+E(xc)   XCENC  =       -27.97443272
  PAW double counting   =       449.13137559     -390.48057864
  entropy T*S    EENTRO =        -0.01075524
  eigenvalues    EBANDS =      -104.77531090
  atomic energy  EATOM  =       614.29171532
  Solvation  Ediel_sol  =         0.00000000
  ---------------------------------------------------
  free energy    TOTEN  =        -7.51680508 eV

  energy without entropy =       -7.50604983  energy(sigma->0) =       -7.51142745


--------------------------------------------------------------------------------------------------------




--------------------------------------- Iteration      1(  17)  ---------------------------------------


    POTLOK:  cpu time    0.0590: real time    0.0594
    SETDIJ:  cpu time    0.0030: real time    0.0031
     EDDAV:  cpu time    0.2299: real time    0.2310
       DOS:  cpu time    0.0008: real time    0.0008
    CHARGE:  cpu time    0.0370: real time    0.0371
    MIXING:  cpu time    0.0024: real time    0.0025
    --------------------------------------------
      LOOP:  cpu time    0.3320: real time    0.3337

 eigenvalue-minimisations  :   384
 total energy-change (2. order) :-0.5741083E-02  (-0.7079682E-04)
 number of electron      13.0000044 magnetization       4.9973848
 augmentation part       -0.1435658 magnetization       0.7945492

 Broyden mixing:
  rms(total) = 0.22284E-02    rms(broyden)= 0.22278E-02
  rms(prec ) = 0.46887E-02
  weight for this iteration     100.00

 eigenvalues of (default mixing * dielectric matrix)
  average eigenvalue GAMMA=   1.3918
  3.9729  2.4202  1.6284  1.6284  1.2681  0.9296  0.9296  0.9595  0.9595  0.7509
  0.6273  0.6273

 Free energy of the ion-electron system (eV)
  ---------------------------------------------------
  alpha Z        PSCENC =         1.14083675
  Ewald energy   TEWEN  =       -79.41283234
  -Hartree energ DENC   =      -469.29659087
  -exchange      EXHF   =         0.00000000
  -V(xc)+E(xc)   XCENC  =       -27.99031987
  PAW double counting   =       449.20712073     -390.55920116
  entropy T*S    EENTRO =        -0.01059344
  eigenvalues    EBANDS =      -104.89268127
  atomic energy  EATOM  =       614.29171532
  Solvation  Ediel_sol  =         0.00000000
  ---------------------------------------------------
  free energy    TOTEN  =        -7.52254616 eV

  energy without entropy =       -7.51195272  energy(sigma->0) =       -7.51724944


--------------------------------------------------------------------------------------------------------




--------------------------------------- Iteration      1(  18)  ---------------------------------------


    POTLOK:  cpu time    0.0590: real time    0.0593
    SETDIJ:  cpu time    0.0031: real time    0.0031
     EDDAV:  cpu time    0.2463: real time    0.2473
       DOS:  cpu time    0.0004: real time    0.0004
    CHARGE:  cpu time    0.0401: real time    0.0403
    MIXING:  cpu time    0.0029: real time    0.0029
    --------------------------------------------
      LOOP:  cpu time    0.3518: real time    0.3533

 eigenvalue-minimisations  :   416
 total energy-change (2. order) :-0.4262764E-02  (-0.5369213E-04)
 number of electron      13.0000044 magnetization       4.9968924
 augmentation part       -0.1441620 magnetization       0.7936514

 Broyden mixing:
  rms(total) = 0.14403E-02    rms(broyden)= 0.14375E-02
  rms(prec ) = 0.28410E-02
  weight for this iteration     100.00

 eigenvalues of (default mixing * dielectric matrix)
  average eigenvalue GAMMA=   1.4627
  4.7388  2.6821  1.9481  1.5436  1.5436  0.9331  0.9331  0.9313  0.9313  0.8729
  0.7090  0.6241  0.6241

 Free energy of the ion-electron system (eV)
  ---------------------------------------------------
  alpha Z        PSCENC =         1.14083675
  Ewald energy   TEWEN  =       -79.41283234
  -Hartree energ DENC   =      -469.22857715
  -exchange      EXHF   =         0.00000000
  -V(xc)+E(xc)   XCENC  =       -27.99669163
  PAW double counting   =       449.47548235     -390.83169889
  entropy T*S    EENTRO =        -0.01064738
  eigenvalues    EBANDS =      -104.95439596
  atomic energy  EATOM  =       614.29171532
  Solvation  Ediel_sol  =         0.00000000
  ---------------------------------------------------
  free energy    TOTEN  =        -7.52680892 eV

  energy without entropy =       -7.51616155  energy(sigma->0) =       -7.52148524


--------------------------------------------------------------------------------------------------------




--------------------------------------- Iteration      1(  19)  ---------------------------------------


    POTLOK:  cpu time    0.0597: real time    0.0600
    SETDIJ:  cpu time    0.0031: real time    0.0031
     EDDAV:  cpu time    0.2368: real time    0.2377
       DOS:  cpu time    0.0003: real time    0.0003
    CHARGE:  cpu time    0.0403: real time    0.0405
    MIXING:  cpu time    0.0025: real time    0.0025
    --------------------------------------------
      LOOP:  cpu time    0.3427: real time    0.3441

 eigenvalue-minimisations  :   400
 total energy-change (2. order) :-0.3581141E-03  (-0.1050165E-04)
 number of electron      13.0000044 magnetization       4.9969419
 augmentation part       -0.1440422 magnetization       0.7937102

 Broyden mixing:
  rms(total) = 0.85194E-03    rms(broyden)= 0.85150E-03
  rms(prec ) = 0.17581E-02
  weight for this iteration     100.00

 eigenvalues of (default mixing * dielectric matrix)
  average eigenvalue GAMMA=   1.5557
  6.0142  3.0109  2.0932  1.4779  1.4142  1.4142  0.9354  0.9354  0.8897  0.8531
  0.8531  0.6223  0.6223  0.6441

 Free energy of the ion-electron system (eV)
  ---------------------------------------------------
  alpha Z        PSCENC =         1.14083675
  Ewald energy   TEWEN  =       -79.41283234
  -Hartree energ DENC   =      -469.24581618
  -exchange      EXHF   =         0.00000000
  -V(xc)+E(xc)   XCENC  =       -27.99439912
  PAW double counting   =       449.63067747     -390.98830975
  entropy T*S    EENTRO =        -0.01070651
  eigenvalues    EBANDS =      -104.93833267
  atomic energy  EATOM  =       614.29171532
  Solvation  Ediel_sol  =         0.00000000
  ---------------------------------------------------
  free energy    TOTEN  =        -7.52716704 eV

  energy without entropy =       -7.51646053  energy(sigma->0) =       -7.52181378


--------------------------------------------------------------------------------------------------------




--------------------------------------- Iteration      1(  20)  ---------------------------------------


    POTLOK:  cpu time    0.0593: real time    0.0597
    SETDIJ:  cpu time    0.0031: real time    0.0031
     EDDAV:  cpu time    0.2944: real time    0.2959
       DOS:  cpu time    0.0003: real time    0.0003
    CHARGE:  cpu time    0.0378: real time    0.0379
    MIXING:  cpu time    0.0032: real time    0.0032
    --------------------------------------------
      LOOP:  cpu time    0.3981: real time    0.4001

 eigenvalue-minimisations  :   512
 total energy-change (2. order) :-0.3412690E-03  (-0.3679280E-05)
 number of electron      13.0000044 magnetization       4.9993363
 augmentation part       -0.1441390 magnetization       0.7959667

 Broyden mixing:
  rms(total) = 0.63736E-03    rms(broyden)= 0.63728E-03
  rms(prec ) = 0.12047E-02
  weight for this iteration     100.00

 eigenvalues of (default mixing * dielectric matrix)
  average eigenvalue GAMMA=   1.5944
  6.7202  3.0638  2.3567  1.4692  1.4692  1.4717  0.9367  0.9367  1.1190  0.8409
  0.8409  0.8203  0.6174  0.6174  0.6355

 Free energy of the ion-electron system (eV)
  ---------------------------------------------------
  alpha Z        PSCENC =         1.14083675
  Ewald energy   TEWEN  =       -79.41283234
  -Hartree energ DENC   =      -469.26178740
  -exchange      EXHF   =         0.00000000
  -V(xc)+E(xc)   XCENC  =       -27.99421772
  PAW double counting   =       449.63183465     -390.98920464
  entropy T*S    EENTRO =        -0.01073229
  eigenvalues    EBANDS =      -104.92312065
  atomic energy  EATOM  =       614.29171532
  Solvation  Ediel_sol  =         0.00000000
  ---------------------------------------------------
  free energy    TOTEN  =        -7.52750831 eV

  energy without entropy =       -7.51677602  energy(sigma->0) =       -7.52214216


--------------------------------------------------------------------------------------------------------




--------------------------------------- Iteration      1(  21)  ---------------------------------------


    POTLOK:  cpu time    0.0596: real time    0.0600
    SETDIJ:  cpu time    0.0032: real time    0.0032
     EDDAV:  cpu time    0.2627: real time    0.2637
       DOS:  cpu time    0.0003: real time    0.0003
    CHARGE:  cpu time    0.0377: real time    0.0378
    MIXING:  cpu time    0.0031: real time    0.0031
    --------------------------------------------
      LOOP:  cpu time    0.3666: real time    0.3681

 eigenvalue-minimisations  :   448
 total energy-change (2. order) :-0.4079922E-03  (-0.4276410E-05)
 number of electron      13.0000044 magnetization       5.0001232
 augmentation part       -0.1441184 magnetization       0.7967861

 Broyden mixing:
  rms(total) = 0.35614E-03    rms(broyden)= 0.35602E-03
  rms(prec ) = 0.66070E-03
  weight for this iteration     100.00

 eigenvalues of (default mixing * dielectric matrix)
  average eigenvalue GAMMA=   1.6639
  7.2559  3.2616  2.6456  2.1407  1.4941  1.4941  0.9364  0.9364  1.1243  1.0618
  0.8354  0.8354  0.7329  0.6151  0.6151  0.6368

 Free energy of the ion-electron system (eV)
  ---------------------------------------------------
  alpha Z        PSCENC =         1.14083675
  Ewald energy   TEWEN  =       -79.41283234
  -Hartree energ DENC   =      -469.26043620
  -exchange      EXHF   =         0.00000000
  -V(xc)+E(xc)   XCENC  =       -27.99390536
  PAW double counting   =       449.56379029     -390.92021854
  entropy T*S    EENTRO =        -0.01069794
  eigenvalues    EBANDS =      -104.92616829
  atomic energy  EATOM  =       614.29171532
  Solvation  Ediel_sol  =         0.00000000
  ---------------------------------------------------
  free energy    TOTEN  =        -7.52791630 eV

  energy without entropy =       -7.51721836  energy(sigma->0) =       -7.52256733


--------------------------------------------------------------------------------------------------------




--------------------------------------- Iteration      1(  22)  ---------------------------------------


    POTLOK:  cpu time    0.0590: real time    0.0595
    SETDIJ:  cpu time    0.0032: real time    0.0032
     EDDAV:  cpu time    0.3270: real time    0.3283
       DOS:  cpu time    0.0003: real time    0.0003
    CHARGE:  cpu time    0.0367: real time    0.0368
    MIXING:  cpu time    0.0029: real time    0.0029
    --------------------------------------------
      LOOP:  cpu time    0.4292: real time    0.4310

 eigenvalue-minimisations  :   576
 total energy-change (2. order) :-0.1169775E-03  (-0.1439739E-05)
 number of electron      13.0000044 magnetization       5.0002589
 augmentation part       -0.1441028 magnetization       0.7969464

 Broyden mixing:
  rms(total) = 0.21901E-03    rms(broyden)= 0.21890E-03
  rms(prec ) = 0.37732E-03
  weight for this iteration     100.00

 eigenvalues of (default mixing * dielectric matrix)
  average eigenvalue GAMMA=   1.7097
  7.7298  3.8633  2.8379  2.2949  1.4761  1.4761  1.2650  0.9364  0.9364  1.1177
  0.8174  0.8174  0.8630  0.7658  0.6190  0.6190  0.6289

 Free energy of the ion-electron system (eV)
  ---------------------------------------------------
  alpha Z        PSCENC =         1.14083675
  Ewald energy   TEWEN  =       -79.41283234
  -Hartree energ DENC   =      -469.25652429
  -exchange      EXHF   =         0.00000000
  -V(xc)+E(xc)   XCENC  =       -27.99452582
  PAW double counting   =       449.50568257     -390.86152809
  entropy T*S    EENTRO =        -0.01071508
  eigenvalues    EBANDS =      -104.93014230
  atomic energy  EATOM  =       614.29171532
  Solvation  Ediel_sol  =         0.00000000
  ---------------------------------------------------
  free energy    TOTEN  =        -7.52803328 eV

  energy without entropy =       -7.51731819  energy(sigma->0) =       -7.52267573


--------------------------------------------------------------------------------------------------------




--------------------------------------- Iteration      1(  23)  ---------------------------------------


    POTLOK:  cpu time    0.0589: real time    0.0592
    SETDIJ:  cpu time    0.0030: real time    0.0031
     EDDAV:  cpu time    0.2848: real time    0.2858
       DOS:  cpu time    0.0003: real time    0.0003
    --------------------------------------------
      LOOP:  cpu time    0.3470: real time    0.3484

 eigenvalue-minimisations  :   496
 total energy-change (2. order) :-0.3769091E-04  (-0.2339909E-06)
 number of electron      13.0000044 magnetization       5.0002589
 augmentation part       -0.1441028 magnetization       0.7969464

 Free energy of the ion-electron system (eV)
  ---------------------------------------------------
  alpha Z        PSCENC =         1.14083675
  Ewald energy   TEWEN  =       -79.41283234
  -Hartree energ DENC   =      -469.25744839
  -exchange      EXHF   =         0.00000000
  -V(xc)+E(xc)   XCENC  =       -27.99431396
  PAW double counting   =       449.49375542     -390.84960414
  entropy T*S    EENTRO =        -0.01071308
  eigenvalues    EBANDS =      -104.92946655
  atomic energy  EATOM  =       614.29171532
  Solvation  Ediel_sol  =         0.00000000
  ---------------------------------------------------
  free energy    TOTEN  =        -7.52807097 eV

  energy without entropy =       -7.51735789  energy(sigma->0) =       -7.52271443


--------------------------------------------------------------------------------------------------------




 average (electrostatic) potential at core
  the test charge radii are     1.1823  0.9406
  (the norm of the test charge is              1.0000)
       1 -50.2690       2 -99.1328
 
 
 
 E-fermi :  -5.2009     XC(G=0):  -0.7757     alpha+bet : -0.2430


 spin component 1

 k-point     1 :       0.1250    0.1250    0.1250
  band No.  band energies     occupation 
      1     -18.1335      1.00000
      2      -7.5439      1.00000
      3      -6.3745      1.00000
      4      -6.3744      1.00000
      5      -6.2398      1.00000
      6      -5.5838      0.99661
      7      -5.5837      0.99661
      8      -5.5835      0.99659
      9      -5.5835      0.99659
     10      -4.8893      0.01379
     11      -1.7419      0.00000
     12      -1.7417      0.00000
     13      -0.7443      0.00000
     14      -0.1237      0.00000
     15       0.6890      0.00000
     16       0.7385      0.00000

 k-point     2 :       0.3750    0.1250    0.1250
  band No.  band energies     occupation 
      1     -18.1335      1.00000
      2      -7.5439      1.00000
      3      -6.3745      1.00000
      4      -6.3744      1.00000
      5      -6.2398      1.00000
      6      -5.5837      0.99661
      7      -5.5837      0.99661
      8      -5.5835      0.99659
      9      -5.5835      0.99659
     10      -4.8893      0.01379
     11      -1.7532      0.00000
     12      -1.7407      0.00000
     13      -0.7384      0.00000
     14       0.0136      0.00000
     15       0.4310      0.00000
     16       0.8106      0.00000

 k-point     3 :       0.3750    0.3750    0.1250
  band No.  band energies     occupation 
      1     -18.1335      1.00000
      2      -7.5440      1.00000
      3      -6.3745      1.00000
      4      -6.3744      1.00000
      5      -6.2398      1.00000
      6      -5.5838      0.99661
      7      -5.5837      0.99661
      8      -5.5836      0.99660
      9      -5.5835      0.99659
     10      -4.8893      0.01379
     11      -1.7519      0.00000
     12      -1.7517      0.00000
     13      -0.7331      0.00000
     14       0.1646      0.00000
     15       0.4786      0.00000
     16       0.5935      0.00000

 k-point     4 :       0.1250    0.1250    0.3750
  band No.  band energies     occupation 
      1     -18.1335      1.00000
      2      -7.5441      1.00000
      3      -6.3745      1.00000
      4      -6.3745      1.00000
      5      -6.2395      1.00000
      6      -5.5838      0.99661
      7      -5.5837      0.99661
      8      -5.5835      0.99659
      9      -5.5835      0.99659
     10      -4.8877      0.01341
     11      -1.7421      0.00000
     12      -1.7419      0.00000
     13      -0.8190      0.00000
     14      -0.0058      0.00000
     15       0.5642      0.00000
     16       0.7683      0.00000

 k-point     5 :       0.3750    0.1250    0.3750
  band No.  band energies     occupation 
      1     -18.1335      1.00000
      2      -7.5442      1.00000
      3      -6.3745      1.00000
      4      -6.3745      1.00000
      5      -6.2395      1.00000
      6      -5.5838      0.99661
      7      -5.5837      0.99661
      8      -5.5835      0.99659
      9      -5.5835      0.99659
     10      -4.8877      0.01341
     11      -1.7532      0.00000
     12      -1.7410      0.00000
     13      -0.8107      0.00000
     14       0.1410      0.00000
     15       0.5108      0.00000
     16       0.6695      0.00000

 k-point     6 :       0.3750    0.3750    0.3750
  band No.  band energies     occupation 
      1     -18.1335      1.00000
      2      -7.5441      1.00000
      3      -6.3745      1.00000
      4      -6.3744      1.00000
      5      -6.2394      1.00000
      6      -5.5837      0.99661
      7      -5.5837      0.99661
      8      -5.5835      0.99659
      9      -5.5834      0.99659
     10      -4.8877      0.01340
     11      -1.7520      0.00000
     12      -1.7518      0.00000
     13      -0.8034      0.00000
     14       0.3092      0.00000
     15       0.5715      0.00000
     16       0.6714      0.00000

 spin component 2

 k-point     1 :       0.1250    0.1250    0.1250
  band No.  band energies     occupation 
      1     -18.2379      1.00000
      2      -7.2771      1.00000
      3      -6.2116      1.00000
      4      -6.2115      1.00000
      5      -3.8030      0.00000
      6      -3.1858      0.00000
      7      -2.7764      0.00000
      8      -2.7764      0.00000
      9      -2.4508      0.00000
     10      -2.4507      0.00000
     11      -0.0192      0.00000
     12       0.0286      0.00000
     13       0.1346      0.00000
     14       0.3648      0.00000
     15       0.9641      0.00000
     16       1.0317      0.00000

 k-point     2 :       0.3750    0.1250    0.1250
  band No.  band energies     occupation 
      1     -18.2379      1.00000
      2      -7.2772      1.00000
      3      -6.2116      1.00000
      4      -6.2115      1.00000
      5      -3.8028      0.00000
      6      -3.1858      0.00000
      7      -2.7764      0.00000
      8      -2.7764      0.00000
      9      -2.4508      0.00000
     10      -2.4506      0.00000
     11      -0.0917      0.00000
     12       0.0322      0.00000
     13       0.2053      0.00000
     14       0.4801      0.00000
     15       0.7269      0.00000
     16       1.0623      0.00000

 k-point     3 :       0.3750    0.3750    0.1250
  band No.  band energies     occupation 
      1     -18.2379      1.00000
      2      -7.2772      1.00000
      3      -6.2116      1.00000
      4      -6.2116      1.00000
      5      -3.8026      0.00000
      6      -3.1857      0.00000
      7      -2.7764      0.00000
      8      -2.7764      0.00000
      9      -2.4509      0.00000
     10      -2.4505      0.00000
     11      -0.0655      0.00000
     12      -0.0491      0.00000
     13       0.2574      0.00000
     14       0.5831      0.00000
     15       0.6984      0.00000
     16       0.9510      0.00000

 k-point     4 :       0.1250    0.1250    0.3750
  band No.  band energies     occupation 
      1     -18.2379      1.00000
      2      -7.2772      1.00000
      3      -6.2116      1.00000
      4      -6.2116      1.00000
      5      -3.8010      0.00000
      6      -3.1850      0.00000
      7      -2.7762      0.00000
      8      -2.7762      0.00000
      9      -2.4508      0.00000
     10      -2.4507      0.00000
     11      -0.0198      0.00000
     12       0.0288      0.00000
     13       0.0365      0.00000
     14       0.4269      0.00000
     15       0.8724      0.00000
     16       1.0964      0.00000

 k-point     5 :       0.3750    0.1250    0.3750
  band No.  band energies     occupation 
      1     -18.2379      1.00000
      2      -7.2773      1.00000
      3      -6.2117      1.00000
      4      -6.2116      1.00000
      5      -3.8008      0.00000
      6      -3.1849      0.00000
      7      -2.7763      0.00000
      8      -2.7762      0.00000
      9      -2.4508      0.00000
     10      -2.4506      0.00000
     11      -0.0676      0.00000
     12       0.0337      0.00000
     13       0.0525      0.00000
     14       0.6076      0.00000
     15       0.7315      0.00000
     16       0.9660      0.00000

 k-point     6 :       0.3750    0.3750    0.3750
  band No.  band energies     occupation 
      1     -18.2379      1.00000
      2      -7.2772      1.00000
      3      -6.2116      1.00000
      4      -6.2115      1.00000
      5      -3.8006      0.00000
      6      -3.1849      0.00000
      7      -2.7763      0.00000
      8      -2.7763      0.00000
      9      -2.4508      0.00000
     10      -2.4505      0.00000
     11      -0.0460      0.00000
     12      -0.0339      0.00000
     13       0.0841      0.00000
     14       0.6869      0.00000
     15       0.8592      0.00000
     16       0.8893      0.00000


--------------------------------------------------------------------------------------------------------


 soft charge-density along one line, spin component           1
         0         1         2         3         4         5         6         7         8         9
 total charge-density along one line
 
 soft charge-density along one line, spin component           2
         0         1         2         3         4         5         6         7         8         9
 total charge-density along one line
 
 pseudopotential strength for first ion, spin component:           1
 -9.355   0.000  -0.000   0.000   0.000 -10.788   0.000  -0.000
  0.000  -9.416  -0.000  -0.000  -0.000   0.000 -10.860  -0.000
 -0.000  -0.000  -9.444   0.000   0.000  -0.000  -0.000 -10.893
  0.000  -0.000   0.000  -9.416   0.000   0.000  -0.000   0.000
  0.000  -0.000   0.000   0.000  -9.355   0.000  -0.000  -0.000
-10.788   0.000  -0.000   0.000   0.000 -12.425   0.000  -0.000
  0.000 -10.860  -0.000  -0.000  -0.000   0.000 -12.511  -0.000
 -0.000  -0.000 -10.893   0.000  -0.000  -0.000  -0.000 -12.548
  0.000  -0.000   0.000 -10.860   0.000   0.000  -0.000   0.000
  0.000  -0.000  -0.000   0.000 -10.788   0.000  -0.000   0.000
  0.000  -0.000   0.034  -0.000   0.000   0.000  -0.000   0.040
  0.000  -0.000   0.057  -0.000   0.000   0.000  -0.000   0.067
 -0.000   0.028   0.000   0.000   0.000   0.000   0.032   0.000
  0.000   0.000   0.063   0.000   0.000   0.000   0.000   0.073
  0.000   0.000   0.000   0.028  -0.000   0.000   0.000   0.000
  0.000   0.037   0.000   0.000   0.000   0.000   0.043   0.000
  0.000   0.000   0.085  -0.000   0.000   0.000   0.000   0.098
  0.000   0.000   0.000   0.037  -0.000   0.000   0.000   0.000
 pseudopotential strength for first ion, spin component:           2
 -9.189   0.000   0.000   0.000  -0.000 -10.576   0.000   0.000
  0.000  -9.232   0.000   0.000   0.000   0.000 -10.628   0.000
  0.000   0.000  -9.360   0.000   0.000   0.000   0.000 -10.779
  0.000   0.000   0.000  -9.232   0.000   0.000   0.000   0.000
 -0.000   0.000   0.000   0.000  -9.189  -0.000   0.000  -0.000
-10.576   0.000   0.000   0.000  -0.000 -12.158   0.000   0.000
  0.000 -10.628   0.000   0.000   0.000   0.000 -12.219   0.000
  0.000   0.000 -10.779   0.000  -0.000   0.000   0.000 -12.399
  0.000   0.000   0.000 -10.628   0.000   0.000   0.000   0.000
 -0.000   0.000  -0.000   0.000 -10.576  -0.000   0.000   0.000
 -0.000  -0.000   0.075  -0.000   0.000  -0.000  -0.000   0.087
 -0.000  -0.000   0.129  -0.000   0.000  -0.000  -0.000   0.150
 -0.000   0.030   0.000  -0.000   0.000   0.000   0.035   0.000
 -0.000  -0.000   0.043   0.000   0.000  -0.000  -0.000   0.049
 -0.000  -0.000   0.000   0.030  -0.000  -0.000  -0.000   0.000
 -0.000   0.041   0.000  -0.000   0.000  -0.000   0.048   0.000
 -0.000  -0.000   0.056  -0.000   0.000  -0.000  -0.000   0.065
 -0.000  -0.000   0.000   0.041  -0.000  -0.000  -0.000   0.000
 total augmentation occupancy for first ion, spin component:           1
  1.104   0.000   0.000   0.000   0.000  -0.014  -0.000   0.000   0.000   0.000   0.000   0.000  -0.000   0.000   0.000  -0.000
  0.000   1.122  -0.000   0.000   0.000  -0.000  -0.053  -0.000   0.000   0.000   0.000   0.000   0.005  -0.000   0.000   0.013
  0.000   0.000   1.464   0.000  -0.000   0.000  -0.000  -0.627   0.000   0.000   0.025   0.003   0.000  -0.219   0.000   0.000
  0.000   0.000   0.000   1.122   0.000   0.000   0.000   0.000  -0.053   0.000   0.000  -0.000   0.000   0.000   0.005   0.000
[...]
     12      -1.1595      0.00000
     13       0.0388      0.00000
     14       0.3987      0.00000
     15       0.5010      0.00000
     16       0.8945      0.00000

 k-point     3 :       0.3750    0.3750    0.1250
  band No.  band energies     occupation 
      1     -19.7066      1.00000
      2      -9.1807      1.00000
      3      -7.9619      1.00000
      4      -7.9619      1.00000
      5      -5.7005      1.00000
      6      -4.7531      1.00000
      7      -4.7530      1.00000
      8      -4.4255      0.99999
      9      -4.4255      0.99999
     10      -3.2158      0.00001
     11      -1.1817      0.00000
     12      -1.1810      0.00000
     13       0.1699      0.00000
     14       0.4598      0.00000
     15       0.5625      0.00000
     16       0.6519      0.00000

 k-point     4 :       0.1250    0.1250    0.3750
  band No.  band energies     occupation 
      1     -19.7066      1.00000
      2      -9.1806      1.00000
      3      -7.9619      1.00000
      4      -7.9619      1.00000
      5      -5.7005      1.00000
      6      -4.7531      1.00000
      7      -4.7531      1.00000
      8      -4.4254      0.99999
      9      -4.4254      0.99999
     10      -3.2134      0.00001
     11      -1.1622      0.00000
     12      -1.1615      0.00000
     13      -0.0451      0.00000
     14       0.1289      0.00000
     15       0.8179      0.00000
     16       0.8619      0.00000

 k-point     5 :       0.3750    0.1250    0.3750
  band No.  band energies     occupation 
      1     -19.7066      1.00000
      2      -9.1807      1.00000
      3      -7.9620      1.00000
      4      -7.9619      1.00000
      5      -5.7005      1.00000
      6      -4.7531      1.00000
      7      -4.7531      1.00000
      8      -4.4255      0.99999
      9      -4.4254      0.99999
     10      -3.2134      0.00001
     11      -1.1840      0.00000
     12      -1.1596      0.00000
     13       0.0367      0.00000
     14       0.2555      0.00000
     15       0.5719      0.00000
     16       0.7735      0.00000

 k-point     6 :       0.3750    0.3750    0.3750
  band No.  band energies     occupation 
      1     -19.7066      1.00000
      2      -9.1806      1.00000
      3      -7.9619      1.00000
      4      -7.9618      1.00000
      5      -5.7004      1.00000
      6      -4.7531      1.00000
      7      -4.7530      1.00000
      8      -4.4255      0.99999
      9      -4.4254      0.99999
     10      -3.2133      0.00001
     11      -1.1813      0.00000
     12      -1.1807      0.00000
     13       0.1030      0.00000
     14       0.4187      0.00000
     15       0.6405      0.00000
     16       0.7152      0.00000

 spin component 2

 k-point     1 :       0.1250    0.1250    0.1250
  band No.  band energies     occupation 
      1     -19.6269      1.00000
      2      -8.9008      1.00000
      3      -7.6167      1.00000
      4      -7.6167      1.00000
      5      -3.0322      0.00000
      6      -1.8689      0.00000
      7      -1.8688      0.00000
      8      -1.7714      0.00000
      9      -1.7167      0.00000
     10      -1.7163      0.00000
     11       0.1594      0.00000
     12       0.4021      0.00000
     13       0.4501      0.00000
     14       0.7419      0.00000
     15       1.1033      0.00000
     16       1.1307      0.00000

 k-point     2 :       0.3750    0.1250    0.1250
  band No.  band energies     occupation 
      1     -19.6269      1.00000
      2      -8.9008      1.00000
      3      -7.6167      1.00000
      4      -7.6166      1.00000
      5      -3.0316      0.00000
      6      -1.8690      0.00000
      7      -1.8688      0.00000
      8      -1.7711      0.00000
      9      -1.7165      0.00000
     10      -1.7163      0.00000
     11       0.1599      0.00000
     12       0.3502      0.00000
     13       0.4832      0.00000
     14       0.8380      0.00000
     15       0.9261      0.00000
     16       1.1846      0.00000

 k-point     3 :       0.3750    0.3750    0.1250
  band No.  band energies     occupation 
      1     -19.6269      1.00000
      2      -8.9009      1.00000
      3      -7.6167      1.00000
      4      -7.6167      1.00000
      5      -3.0311      0.00000
      6      -1.8691      0.00000
      7      -1.8690      0.00000
      8      -1.7709      0.00000
      9      -1.7166      0.00000
     10      -1.7159      0.00000
     11       0.2123      0.00000
     12       0.2597      0.00000
     13       0.5418      0.00000
     14       0.7463      0.00000
     15       1.0446      0.00000
     16       1.0759      0.00000

 k-point     4 :       0.1250    0.1250    0.3750
  band No.  band energies     occupation 
      1     -19.6269      1.00000
      2      -8.9008      1.00000
      3      -7.6167      1.00000
      4      -7.6167      1.00000
      5      -3.0316      0.00000
      6      -1.8685      0.00000
      7      -1.8685      0.00000
      8      -1.7652      0.00000
      9      -1.7167      0.00000
     10      -1.7163      0.00000
     11       0.2086      0.00000
     12       0.3694      0.00000
     13       0.4236      0.00000
     14       0.6239      0.00000
     15       1.0561      0.00000
     16       1.1299      0.00000

 k-point     5 :       0.3750    0.1250    0.3750
  band No.  band energies     occupation 
      1     -19.6269      1.00000
      2      -8.9008      1.00000
      3      -7.6168      1.00000
      4      -7.6167      1.00000
      5      -3.0311      0.00000
      6      -1.8687      0.00000
      7      -1.8685      0.00000
      8      -1.7650      0.00000
      9      -1.7165      0.00000
     10      -1.7163      0.00000
     11       0.2200      0.00000
     12       0.3327      0.00000
     13       0.4351      0.00000
     14       0.7429      0.00000
     15       0.8172      0.00000
     16       1.1570      0.00000

 k-point     6 :       0.3750    0.3750    0.3750
  band No.  band energies     occupation 
      1     -19.6269      1.00000
      2      -8.9008      1.00000
      3      -7.6167      1.00000
      4      -7.6166      1.00000
      5      -3.0306      0.00000
      6      -1.8686      0.00000
      7      -1.8686      0.00000
      8      -1.7648      0.00000
      9      -1.7166      0.00000
     10      -1.7159      0.00000
     11       0.2632      0.00000
     12       0.2964      0.00000
     13       0.4228      0.00000
     14       0.8006      0.00000
     15       0.9134      0.00000
     16       0.9507      0.00000


--------------------------------------------------------------------------------------------------------


 soft charge-density along one line, spin component           1
         0         1         2         3         4         5         6         7         8         9
 total charge-density along one line
 
 soft charge-density along one line, spin component           2
         0         1         2         3         4         5         6         7         8         9
 total charge-density along one line
 
 pseudopotential strength for first ion, spin component:           1
 -9.156   0.000  -0.000   0.000   0.000 -10.550   0.000  -0.000
  0.000  -9.191   0.000   0.000  -0.000   0.000 -10.593   0.000
 -0.000   0.000  -9.210   0.000   0.000  -0.000   0.000 -10.615
  0.000   0.000   0.000  -9.191   0.000   0.000   0.000   0.000
  0.000  -0.000   0.000   0.000  -9.156   0.000  -0.000  -0.000
-10.550   0.000  -0.000   0.000   0.000 -12.141   0.000  -0.000
  0.000 -10.593   0.000   0.000  -0.000   0.000 -12.192   0.000
 -0.000   0.000 -10.615   0.000  -0.000  -0.000   0.000 -12.218
  0.000   0.000   0.000 -10.593   0.000   0.000   0.000   0.000
  0.000  -0.000  -0.000   0.000 -10.550   0.000  -0.000  -0.000
 -0.000  -0.000   0.023  -0.000  -0.000  -0.000  -0.000   0.027
 -0.000  -0.000   0.040  -0.000  -0.000  -0.000  -0.000   0.047
  0.000   0.026   0.000   0.000   0.000   0.000   0.030   0.000
  0.000   0.000   0.058   0.000  -0.000   0.000   0.000   0.067
  0.000   0.000  -0.000   0.026  -0.000   0.000   0.000   0.000
  0.000   0.026   0.000   0.000   0.000   0.000   0.030   0.000
  0.000   0.000   0.070   0.000  -0.000   0.000   0.000   0.081
  0.000   0.000   0.000   0.026   0.000   0.000   0.000   0.000
 pseudopotential strength for first ion, spin component:           2
 -8.965   0.000  -0.000  -0.000  -0.000 -10.313   0.000  -0.000
  0.000  -8.985   0.000  -0.000  -0.000   0.000 -10.338   0.000
 -0.000   0.000  -9.096   0.000   0.000  -0.000   0.000 -10.470
 -0.000  -0.000   0.000  -8.985   0.000  -0.000  -0.000   0.000
 -0.000  -0.000   0.000   0.000  -8.965  -0.000  -0.000  -0.000
-10.313   0.000  -0.000  -0.000  -0.000 -11.848   0.000  -0.000
  0.000 -10.338   0.000  -0.000  -0.000   0.000 -11.879   0.000
 -0.000   0.000 -10.470   0.000  -0.000  -0.000   0.000 -12.036
 -0.000  -0.000   0.000 -10.338   0.000  -0.000  -0.000   0.000
 -0.000  -0.000  -0.000   0.000 -10.313  -0.000  -0.000   0.000
  0.000  -0.000   0.072  -0.000  -0.000   0.000  -0.000   0.083
  0.000  -0.000   0.124  -0.000   0.000   0.000  -0.000   0.143
  0.000   0.033   0.000   0.000  -0.000   0.000   0.039   0.000
  0.000   0.000   0.035   0.000  -0.000   0.000   0.000   0.041
 -0.000   0.000  -0.000   0.033  -0.000  -0.000   0.000  -0.000
  0.000   0.038   0.000   0.000  -0.000   0.000   0.046   0.000
  0.000   0.000   0.039   0.000   0.000   0.000   0.000   0.047
 -0.000   0.000   0.000   0.038   0.000  -0.000   0.000   0.000
 total augmentation occupancy for first ion, spin component:           1
  1.326   0.000   0.000  -0.000   0.000  -0.128   0.000   0.000  -0.000   0.000   0.000   0.000   0.000   0.000   0.000  -0.000
  0.000   2.808  -0.000   0.000   0.000   0.000  -1.244  -0.000   0.000  -0.000   0.000   0.000  -0.134  -0.000   0.000   0.027
  0.000  -0.000   7.757   0.000  -0.000   0.000   0.000  -5.170   0.000   0.000   1.413  -0.279   0.000  -1.071   0.000   0.000
 -0.000   0.000   0.000   2.808   0.000   0.000   0.000   0.000  -1.244  -0.000  -0.000   0.000   0.000   0.000  -0.134   0.000
  0.000  -0.000  -0.000  -0.000   1.327   0.000   0.000   0.000   0.000  -0.129  -0.000   0.000  -0.000   0.000   0.000  -0.000
 -0.128   0.000   0.000   0.000   0.000   0.012   0.000   0.000   0.000   0.000   0.000   0.000   0.000   0.000   0.000   0.000
  0.000  -1.244  -0.000   0.000   0.000   0.000   0.869   0.000   0.000  -0.000   0.000   0.000   0.143   0.000   0.000  -0.010
  0.000  -0.000  -5.170   0.000   0.000   0.000   0.000   3.572   0.000  -0.000  -1.237   0.199  -0.000   0.709   0.000   0.000
 -0.000   0.000   0.000  -1.244   0.000   0.000   0.000   0.000   0.869   0.000   0.000   0.000   0.000  -0.000   0.143   0.000
  0.000  -0.000   0.000  -0.000  -0.129   0.000  -0.000  -0.000   0.000   0.013   0.000  -0.000   0.000  -0.000   0.000  -0.000
  0.000   0.000   1.413  -0.000  -0.000   0.000   0.000  -1.237   0.000   0.000   1.355  -0.059   0.000  -0.192   0.000   0.000
  0.000   0.000  -0.279   0.000   0.000   0.000   0.000   0.199   0.000  -0.000  -0.059   0.014  -0.000   0.038  -0.000   0.000
  0.000  -0.134   0.000   0.000   0.000   0.000   0.143  -0.000   0.000   0.000   0.000   0.000   0.029   0.000   0.000  -0.001
  0.000  -0.000  -1.071   0.000   0.000   0.000   0.000   0.709  -0.000  -0.000  -0.192   0.038   0.000   0.148   0.000   0.000
  0.000   0.000   0.000  -0.134   0.000   0.000   0.000   0.000   0.143   0.000   0.000   0.000   0.000   0.000   0.029   0.000
  0.000   0.027   0.000   0.000  -0.000   0.000  -0.010   0.000   0.000   0.000   0.000   0.000  -0.001   0.000   0.000   0.000
  0.000  -0.000   0.104   0.000  -0.000   0.000   0.000  -0.069  -0.000   0.000   0.019  -0.004   0.000  -0.014  -0.000  -0.000
  0.000   0.000   0.000   0.027  -0.000   0.000   0.000  -0.000  -0.010   0.000   0.000   0.000   0.000  -0.000  -0.001   0.000
 total augmentation occupancy for first ion, spin component:           2
  1.326  -0.000   0.000   0.000   0.000  -0.128   0.000   0.000  -0.000   0.000   0.000   0.000   0.000   0.000  -0.000  -0.000
 -0.000   0.780  -0.000   0.000  -0.000  -0.000   0.117   0.000   0.000   0.000   0.000  -0.000   0.060   0.000   0.000   0.010
  0.000  -0.000   0.264  -0.000  -0.000   0.000   0.000   0.175  -0.000   0.000  -0.595  -0.037  -0.000  -0.066   0.000   0.000
  0.000   0.000  -0.000   0.780  -0.000   0.000   0.000   0.000   0.117   0.000   0.000   0.000   0.000   0.000   0.060   0.000
  0.000   0.000  -0.000   0.000   1.327   0.000   0.000   0.000   0.000  -0.129   0.000   0.000  -0.000   0.000   0.000  -0.000
 -0.128  -0.000   0.000   0.000   0.000   0.012  -0.000   0.000   0.000   0.000   0.000   0.000   0.000   0.000   0.000  -0.000
  0.000   0.117   0.000   0.000   0.000  -0.000  -0.043   0.000   0.000   0.000   0.000  -0.000   0.013  -0.000   0.000   0.001
  0.000  -0.000   0.175   0.000   0.000   0.000   0.000  -0.264   0.000   0.000   0.185   0.017   0.000  -0.006   0.000   0.000
 -0.000   0.000   0.000   0.117   0.000   0.000   0.000   0.000  -0.043   0.000   0.000   0.000   0.000   0.000   0.013   0.000
  0.000   0.000   0.000   0.000  -0.129   0.000   0.000   0.000   0.000   0.013  -0.000  -0.000   0.000   0.000   0.000   0.000
  0.000   0.000  -0.595   0.000   0.000   0.000   0.000   0.185   0.000  -0.000   0.812   0.001  -0.000   0.079   0.000   0.000
  0.000  -0.000  -0.037   0.000   0.000   0.000  -0.000   0.017   0.000  -0.000   0.001   0.002   0.000   0.006   0.000   0.000
  0.000   0.060  -0.000   0.000  -0.000   0.000   0.013   0.000   0.000   0.000  -0.000  -0.000   0.010   0.000   0.000   0.001
  0.000   0.000  -0.066   0.000   0.000   0.000  -0.000  -0.006   0.000   0.000   0.079   0.006   0.000   0.013   0.000   0.000
 -0.000   0.000   0.000   0.060   0.000   0.000   0.000   0.000   0.013   0.000   0.000   0.000   0.000  -0.000   0.010   0.000
 -0.000   0.010   0.000   0.000   0.000  -0.000   0.001   0.000   0.000   0.000   0.000   0.000   0.001   0.000   0.000   0.000
  0.000  -0.000   0.021   0.000  -0.000   0.000  -0.000  -0.010   0.000   0.000  -0.003  -0.001   0.000  -0.003   0.000   0.000
  0.000   0.000   0.000   0.010   0.000   0.000   0.000   0.000   0.001   0.000   0.000   0.000   0.000   0.000   0.001   0.000


------------------------ aborting loop because EDIFF is reached ----------------------------------------


    CHARGE:  cpu time    0.0372: real time    0.0373
    FORLOC:  cpu time    0.0012: real time    0.0012
    FORNL :  cpu time    0.0226: real time    0.0227
    STRESS:  cpu time    0.2591: real time    0.2600
    FORCOR:  cpu time    0.0554: real time    0.0556
    FORHAR:  cpu time    0.0057: real time    0.0057
    MIXING:  cpu time    0.0016: real time    0.0016
    OFIELD:  cpu time    0.0000: real time    0.0000

  FORCE on cell =-STRESS in cart. coord.  units (eV):
  Direction    XX          YY          ZZ          XY          YZ          ZX
  --------------------------------------------------------------------------------------
  Alpha Z     1.14084     1.14084     1.14084
  Ewald     -97.60750   -97.60750   179.01730    -0.00000    -0.00000    -0.00000
  Hartree   128.56439   128.56439   269.62115    -0.00000    -0.00000    -0.00000
  E(xc)     -51.29203   -51.29203   -50.98282     0.00000     0.00000     0.00000
  Local    -230.00095  -230.00095  -629.10511     0.00000    -0.00000    -0.00000
  n-local    55.73306    55.73161    60.77916    -0.00078    -0.00075    -0.00060
  augment   -14.02820   -14.02820   -13.99510    -0.00000     0.00000    -0.00000
  Kinetic   207.28669   207.28712   183.27635     0.00038     0.00034     0.00028
  Fock        0.00000     0.00000     0.00000     0.00000     0.00000     0.00000
  -------------------------------------------------------------------------------------
  Total      -0.20421    -0.20421    -0.24823     0.00000     0.00000     0.00000
  in kB      -0.18934    -0.18934    -0.23015     0.00000     0.00000     0.00000
  external pressure =       -0.20 kB  Pullay stress =        0.00 kB


 VOLUME and BASIS-vectors are now :
 -----------------------------------------------------------------------------
  energy-cutoff  :      280.00
  volume of cell :     1728.00
      direct lattice vectors                 reciprocal lattice vectors
    12.000000000  0.000000000  0.000000000     0.083333333  0.000000000  0.000000000
     0.000000000 12.000000000  0.000000000     0.000000000  0.083333333  0.000000000
     0.000000000  0.000000000 12.000000000     0.000000000  0.000000000  0.083333333

  length of vectors
    12.000000000 12.000000000 12.000000000     0.083333333  0.083333333  0.083333333


 FORCES acting on ions
    electron-ion (+dipol)            ewald-force                    non-local-force                 convergence-correction
 -----------------------------------------------------------------------------------------------
   0.511E-14 0.162E-12 -.119E+03   -.355E-16 -.150E-16 0.115E+03   -.212E-21 -.424E-21 0.399E+01   -.236E-14 -.442E-14 0.335E-02
   -.295E-14 -.294E-12 0.112E+03   0.262E-16 -.332E-16 -.115E+03   0.000E+00 0.000E+00 0.253E+01   0.398E-14 -.334E-15 0.790E-02
 -----------------------------------------------------------------------------------------------
   0.216E-14 -.132E-12 -.653E+01   -.929E-17 -.481E-16 0.000E+00   -.212E-21 -.424E-21 0.652E+01   0.162E-14 -.475E-14 0.112E-01
 
 
 POSITION                                       TOTAL-FORCE (eV/Angst)
 -----------------------------------------------------------------------------------
      0.00000      0.00000      2.63021        -0.000000      0.000000     -0.020168
      0.00000     -0.00000      0.36979         0.000000     -0.000000      0.020168
 -----------------------------------------------------------------------------------
    total drift:                                0.000000     -0.000000     -0.000461


--------------------------------------------------------------------------------------------------------



  FREE ENERGIE OF THE ION-ELECTRON SYSTEM (eV)
  ---------------------------------------------------
  free  energy   TOTEN  =        -9.17946667 eV

  energy  without entropy=       -9.17944997  energy(sigma->0) =       -9.17945832
 
 d Force = 0.2220851E-02[-0.354E-03, 0.480E-02]  d Energy = 0.2154999E-02 0.659E-04
 d Force = 0.2031683E+01[ 0.202E+01, 0.205E+01]  d Ewald  = 0.2031620E+01 0.636E-04


--------------------------------------------------------------------------------------------------------


    POTLOK:  cpu time    0.0616: real time    0.0618


--------------------------------------------------------------------------------------------------------




--------------------------------------------------------------------------------------------------------


  
 reached required accuracy - stopping structural energy minimisation
 writing wavefunctions
     LOOP+:  cpu time    3.6903: real time    3.7101
    4ORBIT:  cpu time    0.0000: real time    0.0000

 total amount of memory used by VASP MPI-rank0    84617. kBytes
=======================================================================

   base      :      30000. kBytes
   nonl-proj :      32384. kBytes
   fftplans  :       2864. kBytes
   grid      :      15769. kBytes
   one-center:         62. kBytes
   wavefun   :       3538. kBytes
 
  
  
 General timing and accounting informations for this job:
 ========================================================
  
                  Total CPU time used (sec):       50.325
                            User time (sec):       47.562
                          System time (sec):        2.763
                         Elapsed time (sec):       51.506
  
                   Maximum memory used (kb):      239720.
                   Average memory used (kb):           0.
  
                          Minor page faults:        70989
                          Major page faults:           30
                 Voluntary context switches:         9577
