 vasp.5.4.1 05Feb16 (build Mar 19 2020 08:54:17) complex                        
  
 executed on           IFC91_ompi date 2022.03.11  11:59:32
 running on   96 total cores
 distrk:  each k-point on   96 cores,    1 groups
 distr:  one band on NCORES_PER_BAND=  24 cores,    4 groups


--------------------------------------------------------------------------------------------------------


 INCAR:
 POTCAR:    PAW_PBE Ni 02Aug2007                  
 POTCAR:    PAW_PBE Cl 06Sep2000                  

 ----------------------------------------------------------------------------- 
|                                                                             |
|           W    W    AA    RRRRR   N    N  II  N    N   GGGG   !!!           |
|           W    W   A  A   R    R  NN   N  II  NN   N  G    G  !!!           |
|           W    W  A    A  R    R  N N  N  II  N N  N  G       !!!           |
|           W WW W  AAAAAA  RRRRR   N  N N  II  N  N N  G  GGG   !            |
|           WW  WW  A    A  R   R   N   NN  II  N   NN  G    G                |
|           W    W  A    A  R    R  N    N  II  N    N   GGGG   !!!           |
|                                                                             |
|      For optimal performance we recommend to set                            |
|        NCORE= 4 - approx SQRT( number of cores)                             |
|      NCORE specifies how many cores store one orbital (NPAR=cpu/NCORE).     |
|      This setting can  greatly improve the performance of VASP for DFT.     |
|      The default, NPAR=number of cores might be grossly inefficient         |
|      on modern multi-core architectures or massively parallel machines.     |
|      Do your own testing !!!!                                               |
|      Unfortunately you need to use the default for GW and RPA calculations. |
|      (for HF NCORE is supported but not extensively tested yet)             |
|                                                                             |
 ----------------------------------------------------------------------------- 

 POTCAR:    PAW_PBE Ni 02Aug2007                  
   VRHFIN =Ni:                                                                  
   LEXCH  = PE                                                                  
   EATOM  =  1077.6739 eV,   79.2068 Ry                                         
                                                                                
   TITEL  = PAW_PBE Ni 02Aug2007                                                
   LULTRA =        F    use ultrasoft PP ?                                      
   IUNSCR =        1    unscreen: 0-lin 1-nonlin 2-no                           
   RPACOR =    2.000    partial core radius                                     
   POMASS =   58.690; ZVAL   =   10.000    mass and valenz                      
   RCORE  =    2.300    outmost cutoff radius                                   
   RWIGS  =    2.430; RWIGS  =    1.286    wigner-seitz radius (au A)           
   ENMAX  =  269.532; ENMIN  =  202.149 eV                                      
   RCLOC  =    1.201    cutoff for local pot                                    
   LCOR   =        T    correct aug charges                                     
   LPAW   =        T    paw PP                                                  
   EAUG   =  544.565                                                            
   DEXC   =    0.000                                                            
   RMAX   =    2.357    core radius for proj-oper                               
   RAUG   =    1.300    factor for augmentation sphere                          
   RDEP   =    2.390    radius for radial grids                                 
   RDEPT  =    1.838    core radius for aug-charge                              
                                                                                
   Atomic configuration                                                         
    9 entries                                                                   
     n  l   j            E        occ.                                          
     1  0  0.50     -8206.4253   2.0000                                         
     2  0  0.50      -976.1748   2.0000                                         
     2  1  1.50      -839.0571   6.0000                                         
     3  0  0.50      -105.9991   2.0000                                         
     3  1  1.50       -66.4603   6.0000                                         
     3  2  2.50        -4.6458   9.0000                                         
     4  0  0.50        -4.4926   1.0000                                         
     4  1  1.50        -4.0817   0.0000                                         
     4  3  2.50        -1.3606   0.0000                                         
   Description                                                                  
     l       E           TYP  RCUT    TYP  RCUT                                 
     2     -4.6457903     23  2.300                                             
     2     -6.0063729     23  2.300                                             
     0     -4.4925590     23  2.300                                             
     0      5.0102601     23  2.300                                             
     1     -2.7211652     23  2.300                                             
     1     16.5183231     23  2.300                                             
  local pseudopotential read in
  partial core-charges read in
  partial kinetic energy density read in
  atomic valenz-charges read in
  non local Contribution for L=           2  read in
    real space projection operators read in
  non local Contribution for L=           2  read in
    real space projection operators read in
  non local Contribution for L=           0  read in
    real space projection operators read in
  non local Contribution for L=           0  read in
    real space projection operators read in
  non local Contribution for L=           1  read in
    real space projection operators read in
  non local Contribution for L=           1  read in
    real space projection operators read in
    PAW grid and wavefunctions read in
 
   number of l-projection  operators is LMAX  =           6
   number of lm-projection operators is LMMAX =          18
 
 POTCAR:    PAW_PBE Cl 06Sep2000                  
   VRHFIN =Cl: s2p5                                                             
   LEXCH  = PE                                                                  
   EATOM  =   409.7259 eV,   30.1140 Ry                                         
                                                                                
   TITEL  = PAW_PBE Cl 06Sep2000                                                
   LULTRA =        F    use ultrasoft PP ?                                      
   IUNSCR =        1    unscreen: 0-lin 1-nonlin 2-no                           
   RPACOR =    1.500    partial core radius                                     
   POMASS =   35.453; ZVAL   =    7.000    mass and valenz                      
   RCORE  =    1.900    outmost cutoff radius                                   
   RWIGS  =    2.100; RWIGS  =    1.111    wigner-seitz radius (au A)           
   ENMAX  =  262.472; ENMIN  =  196.854 eV                                      
   ICORE  =        2    local potential                                         
   LCOR   =        T    correct aug charges                                     
   LPAW   =        T    paw PP                                                  
   EAUG   =  356.192                                                            
   DEXC   =    0.000                                                            
   RMAX   =    1.945    core radius for proj-oper                               
   RAUG   =    1.300    factor for augmentation sphere                          
   RDEP   =    2.020    radius for radial grids                                 
   RDEPT  =    1.678    core radius for aug-charge                              
                                                                                
   Atomic configuration                                                         
    6 entries                                                                   
     n  l   j            E        occ.                                          
     1  0  0.50     -2751.1850   2.0000                                         
     2  0  0.50      -252.6861   2.0000                                         
     2  1  1.50      -191.6157   6.0000                                         
     3  0  0.50       -20.6916   2.0000                                         
     3  1  0.50        -8.5949   5.0000                                         
     3  2  1.50        -8.1635   0.0000                                         
   Description                                                                  
     l       E           TYP  RCUT    TYP  RCUT                                 
     0    -20.6915656     23  1.900                                             
     0    -22.0521482     23  1.900                                             
     1     -8.5948577     23  1.900                                             
     1     -5.3847331     23  1.900                                             
     2     -8.1634956     23  1.900                                             
  local pseudopotential read in
  partial core-charges read in
  partial kinetic energy density read in
  atomic valenz-charges read in
  non local Contribution for L=           0  read in
    real space projection operators read in
  non local Contribution for L=           0  read in
    real space projection operators read in
  non local Contribution for L=           1  read in
    real space projection operators read in
  non local Contribution for L=           1  read in
    real space projection operators read in
    PAW grid and wavefunctions read in
 
   number of l-projection  operators is LMAX  =           4
   number of lm-projection operators is LMMAX =           8
 

 ----------------------------------------------------------------------------- 
|                                                                             |
|  ADVICE TO THIS USER RUNNING 'VASP/VAMP'   (HEAR YOUR MASTER'S VOICE ...):  |
|                                                                             |
|      You have a (more or less) 'small supercell' and for smaller cells      |
|      it is recommended  to use the reciprocal-space projection scheme!      |
|      The real space optimization is not  efficient for small cells and it   |
|      is also less accurate ...                                              |
|      Therefore set LREAL=.FALSE. in the  INCAR file                         |
|                                                                             |
 ----------------------------------------------------------------------------- 

 Optimization of the real space projectors (new method)

 maximal supplied QI-value         = 16.25
 optimisation between [QCUT,QGAM] = [ 10.73, 21.61] = [ 32.22,130.83] Ry 
 Optimized for a Real-space Cutoff    1.34 Angstroem

   l    n(q)    QCUT    max X(q) W(low)/X(q) W(high)/X(q)  e(spline) 
   2      8    10.726    60.317    0.47E-03    0.39E-03    0.97E-07
   2      8    10.726    55.921    0.48E-03    0.39E-03    0.10E-06
   0      9    10.726    51.690    0.35E-03    0.32E-03    0.97E-07
   0      9    10.726    30.015    0.31E-03    0.29E-03    0.88E-07
   1      8    10.726    18.849    0.34E-03    0.47E-04    0.17E-06
   1      8    10.726    14.624    0.29E-03    0.31E-04    0.15E-06
 Optimization of the real space projectors (new method)

 maximal supplied QI-value         = 19.84
 optimisation between [QCUT,QGAM] = [ 10.71, 21.63] = [ 32.15,130.99] Ry 
 Optimized for a Real-space Cutoff    1.19 Angstroem

   l    n(q)    QCUT    max X(q) W(low)/X(q) W(high)/X(q)  e(spline) 
   0      8    10.715   168.010    0.38E-03    0.52E-04    0.59E-07
   0      8    10.715   164.674    0.37E-03    0.50E-04    0.57E-07
   1      7    10.715    69.222    0.20E-03    0.59E-03    0.70E-07
   1      7    10.715    56.786    0.19E-03    0.58E-03    0.68E-07
  PAW_PBE Ni 02Aug2007                  :
 energy of atom  1       EATOM=-1077.6739
 kinetic energy error for atom=    0.0038 (will be added to EATOM!!)
  PAW_PBE Cl 06Sep2000                  :
 energy of atom  2       EATOM= -409.7259
 kinetic energy error for atom=    0.0057 (will be added to EATOM!!)
 
 
 POSCAR: Ni Cell                                 
  positions in direct lattice
  No initial velocities read in
 exchange correlation table for  LEXCH =        8
   RHO(1)=    0.500       N(1)  =     2000
   RHO(2)=  100.500       N(2)  =     4000
 


--------------------------------------------------------------------------------------------------------


 ion  position               nearest neighbor table
   1  0.500  0.500  0.500-   2 2.25
   2  0.500  0.500  0.650-   1 2.25
 
  LATTYP: Found a simple cubic cell.
 ALAT       =    15.0000000000
  
  Lattice vectors:
  
 A1 = (  15.0000000000,   0.0000000000,   0.0000000000)
 A2 = (   0.0000000000,  15.0000000000,   0.0000000000)
 A3 = (   0.0000000000,   0.0000000000,  15.0000000000)


Analysis of symmetry for initial positions (statically):
=====================================================================
 Subroutine PRICEL returns:
 Original cell was already a primitive cell.
 

 Routine SETGRP: Setting up the symmetry group for a 
 simple cubic supercell.


 Subroutine GETGRP returns: Found  8 space group operations
 (whereof  8 operations were pure point group operations)
 out of a pool of 48 trial point group operations.


The static configuration has the point symmetry C_4v.


Analysis of symmetry for dynamics (positions and initial velocities):
=====================================================================
 Subroutine PRICEL returns:
 Original cell was already a primitive cell.
 

 Routine SETGRP: Setting up the symmetry group for a 
 simple cubic supercell.


 Subroutine GETGRP returns: Found  8 space group operations
 (whereof  8 operations were pure point group operations)
 out of a pool of 48 trial point group operations.


The dynamic configuration has the point symmetry C_4v.


Analysis of structural, dynamic, and magnetic symmetry:
=====================================================================
 Subroutine PRICEL returns:
 Original cell was already a primitive cell.
 

 Routine SETGRP: Setting up the symmetry group for a 
 simple cubic supercell.


 Subroutine GETGRP returns: Found  8 space group operations
 (whereof  8 operations were pure point group operations)
 out of a pool of 48 trial point group operations.


The magnetic configuration has the point symmetry C_4v.


 Subroutine INISYM returns: Found  8 space group operations
 (whereof  8 operations are pure point group operations),
 and found     1 'primitive' translations

 
 
 KPOINTS: k-points                                

Automatic generation of k-mesh.
Space group operators:
 irot       det(A)        alpha          n_x          n_y          n_z        tau_x        tau_y        tau_z
    1     1.000000     0.000000     1.000000     0.000000     0.000000     0.000000     0.000000     0.000000
    2     1.000000    90.000000     0.000000     0.000000    -1.000000     0.000000     0.000000     0.000000
    3     1.000000   180.000000     0.000000     0.000000     1.000000     0.000000     0.000000     0.000000
    4     1.000000    90.000000     0.000000     0.000000     1.000000     0.000000     0.000000     0.000000
    5    -1.000000   180.000000     1.000000     0.000000     0.000000     0.000000     0.000000     0.000000
    6    -1.000000   180.000000     0.707107     0.707107     0.000000     0.000000     0.000000     0.000000
    7    -1.000000   180.000000     0.000000     1.000000     0.000000     0.000000     0.000000     0.000000
    8    -1.000000   180.000000     0.707107    -0.707107     0.000000     0.000000     0.000000     0.000000
 
 Subroutine IBZKPT returns following result:
 ===========================================
 
 Found      1 irreducible k-points:
 
 Following reciprocal coordinates:
            Coordinates               Weight
  0.000000  0.000000  0.000000      1.000000
 
 Following cartesian coordinates:
            Coordinates               Weight
  0.000000  0.000000  0.000000      1.000000
 


--------------------------------------------------------------------------------------------------------




 Dimension of arrays:
   k-points           NKPTS =      1   k-points in BZ     NKDIM =      1   number of bands    NBANDS=     16
   number of dos      NEDOS =    301   number of ions     NIONS =      2
   non local maximal  LDIM  =      6   non local SUM 2l+1 LMDIM =     18
   total plane-waves  NPLWV = 512000
   max r-space proj   IRMAX =   1581   max aug-charges    IRDMAX=   5116
   dimension x,y,z NGX =    80 NGY =   80 NGZ =   80
   dimension x,y,z NGXF=   160 NGYF=  160 NGZF=  160
   support grid    NGXF=   160 NGYF=  160 NGZF=  160
   ions per type =               1   1
 NGX,Y,Z   is equivalent  to a cutoff of   8.87,  8.87,  8.87 a.u.
 NGXF,Y,Z  is equivalent  to a cutoff of  17.73, 17.73, 17.73 a.u.


 I would recommend the setting:
   dimension x,y,z NGX =    78 NGY =   78 NGZ =   78
 SYSTEM =  clean (100) surface                     
 POSCAR =  Ni Cell                                 

 Startparameter for this run:
   NWRITE =      2    write-flag & timer
   PREC   = normal    normal or accurate (medium, high low for compatibility)
   ISTART =      0    job   : 0-new  1-cont  2-samecut
   ICHARG =      2    charge: 1-file 2-atom 10-const
   ISPIN  =      2    spin polarized calculation?
   LNONCOLLINEAR =      F non collinear calculations
   LSORBIT =      F    spin-orbit coupling
   INIWAV =      1    electr: 0-lowe 1-rand  2-diag
   LASPH  =      F    aspherical Exc in radial PAW
   METAGGA=      F    non-selfconsistent MetaGGA calc.

 Electronic Relaxation 1
   ENCUT  =  450.0 eV  33.07 Ry    5.75 a.u.  25.95 25.95 25.95*2*pi/ulx,y,z
   ENINI  =  450.0     initial cutoff
   ENAUG  =  544.6 eV  augmentation charge cutoff
   NELM   =     60;   NELMIN=  2; NELMDL= -5     # of ELM steps 
   EDIFF  = 0.1E-05   stopping-criterion for ELM
   LREAL  =      T    real-space projection
   NLSPLINE    = F    spline interpolate recip. space projectors
   LCOMPAT=      F    compatible to vasp.4.4
   GGA_COMPAT  = T    GGA compatible to vasp.4.4-vasp.4.6
   LMAXPAW     = -100 max onsite density
   LMAXMIX     =    2 max onsite mixed and CHGCAR
   VOSKOWN=      0    Vosko Wilk Nusair interpolation
   ROPT   =   -0.00050  -0.00050
 Ionic relaxation
   EDIFFG = -.1E-01   stopping-criterion for IOM
   NSW    =    250    number of steps for IOM
   NBLOCK =      1;   KBLOCK =    250    inner block; outer block 
   IBRION =      2    ionic relax: 0-MD 1-quasi-New 2-CG
   NFREE  =      1    steps in history (QN), initial steepest desc. (CG)
   ISIF   =      2    stress and relaxation
   IWAVPR =     11    prediction:  0-non 1-charg 2-wave 3-comb
   ISYM   =      2    0-nonsym 1-usesym 2-fastsym
   LCORR  =      T    Harris-Foulkes like correction to forces

   POTIM  = 0.1000    time-step for ionic-motion
   TEIN   =    0.0    initial temperature
   TEBEG  =    0.0;   TEEND  =   0.0 temperature during run
   SMASS  =  -3.00    Nose mass-parameter (am)
   estimated Nose-frequenzy (Omega)   =  0.10E-29 period in steps =****** mass=  -0.514E-26a.u.
   SCALEE = 1.0000    scale energy and forces
   NPACO  =    256;   APACO  = 16.0  distance and # of slots for P.C.
   PSTRESS=    0.0 pullay stress

  Mass of Ions in am
   POMASS =  58.69 35.45
  Ionic Valenz
   ZVAL   =  10.00  7.00
  Atomic Wigner-Seitz radii
   RWIGS  =  -1.00 -1.00
  virtual crystal weights 
   VCA    =   1.00  1.00
   NELECT =      17.0000    total number of electrons
   NUPDOWN=      -1.0000    fix difference up-down

 DOS related values:
   EMIN   =  10.00;   EMAX   =-10.00  energy-range for DOS
   EFERMI =   0.00
   ISMEAR =     2;   SIGMA  =   0.20  broadening in eV -4-tet -1-fermi 0-gaus

 Electronic relaxation 2 (details)
   IALGO  =     68    algorithm
   LDIAG  =      T    sub-space diagonalisation (order eigenvalues)
   LSUBROT=      F    optimize rotation matrix (better conditioning)
   TURBO    =      0    0=normal 1=particle mesh
   IRESTART =      0    0=no restart 2=restart with 2 vectors
   NREBOOT  =      0    no. of reboots
   NMIN     =      0    reboot dimension
   EREF     =   0.00    reference energy to select bands
   IMIX   =      4    mixing-type and parameters
     AMIX     =   0.40;   BMIX     =  1.00
     AMIX_MAG =   1.60;   BMIX_MAG =  1.00
     AMIN     =   0.10
     WC   =   100.;   INIMIX=   1;  MIXPRE=   1;  MAXMIX= -45

 Intra band minimization:
   WEIMIN = 0.0010     energy-eigenvalue tresh-hold
   EBREAK =  0.16E-07  absolut break condition
   DEPER  =   0.30     relativ break condition  

   TIME   =   0.40     timestep for ELM

  volume/ion in A,a.u.               =    1687.50     11387.81
  Fermi-wavevector in a.u.,A,eV,Ry     =   0.280629  0.530313  1.071498  0.078753
  Thomas-Fermi vector in A             =   1.129589
 
 Write flags
   LWAVE  =      F    write WAVECAR
   LCHARG =      F    write CHGCAR
   LVTOT  =      F    write LOCPOT, total local potential
   LVHAR  =      F    write LOCPOT, Hartree potential only
   LELF   =      F    write electronic localiz. function (ELF)
   LORBIT =      0    0 simple, 1 ext, 2 COOP (PROOUT)


 Dipole corrections
   LMONO  =      F    monopole corrections only (constant potential shift)
   LDIPOL =      F    correct potential (dipole corrections)
   IDIPOL =      0    1-x, 2-y, 3-z, 4-all directions 
   EPSILON=  1.0000000 bulk dielectric constant

 Exchange correlation treatment:
   GGA     =    --    GGA type
   LEXCH   =     8    internal setting for exchange type
   VOSKOWN=      0    Vosko Wilk Nusair interpolation
   LHFCALC =     F    Hartree Fock is set to
   LHFONE  =     F    Hartree Fock one center treatment
   AEXX    =    0.0000 exact exchange contribution

 Linear response parameters
   LEPSILON=     F    determine dielectric tensor
   LRPA    =     F    only Hartree local field effects (RPA)
   LNABLA  =     F    use nabla operator in PAW spheres
   LVEL    =     F    velocity operator in full k-point grid
   LINTERFAST=   F  fast interpolation
   KINTER  =     0    interpolate to denser k-point grid
   CSHIFT  =0.1000    complex shift for real part using Kramers Kronig
   OMEGAMAX=  -1.0    maximum frequency
   DEG_THRESHOLD= 0.2000000E-02 threshold for treating states as degnerate
   RTIME   =    0.100 relaxation time in fs

 Orbital magnetization related:
   ORBITALMAG=     F  switch on orbital magnetization
   LCHIMAG   =     F  perturbation theory with respect to B field
   DQ        =  0.001000  dq finite difference perturbation B field



--------------------------------------------------------------------------------------------------------


 conjugate gradient relaxation of ions
 charge density and potential will be updated during run
 spin polarized calculation
 RMM-DIIS sequential band-by-band and
  variant of blocked Davidson during initial phase
 perform sub-space diagonalisation
    before iterative eigenvector-optimisation
 modified Broyden-mixing scheme, WC =      100.0
 initial mixing is a Kerker type mixing with AMIX =  0.4000 and BMIX =      1.0000
 Hartree-type preconditioning will be used
 using additional bands            7
 real space projection scheme for non local part
 use partial core corrections
 calculate Harris-corrections to forces 
   (improved forces if not selfconsistent)
 use gradient corrections 
 use of overlap-Matrix (Vanderbilt PP)
 Methfessel and Paxton  Order N= 2 SIGMA  =   0.20


--------------------------------------------------------------------------------------------------------


  energy-cutoff  :      450.00
  volume of cell :     3375.00
      direct lattice vectors                 reciprocal lattice vectors
    15.000000000  0.000000000  0.000000000     0.066666667  0.000000000  0.000000000
     0.000000000 15.000000000  0.000000000     0.000000000  0.066666667  0.000000000
     0.000000000  0.000000000 15.000000000     0.000000000  0.000000000  0.066666667

  length of vectors
    15.000000000 15.000000000 15.000000000     0.066666667  0.066666667  0.066666667


 
 k-points in units of 2pi/SCALE and weight: k-points                                
   0.00000000  0.00000000  0.00000000       1.000
 
 k-points in reciprocal lattice and weights: k-points                                
   0.00000000  0.00000000  0.00000000       1.000
 
 position of ions in fractional coordinates (direct lattice) 
   0.50000000  0.50000000  0.50000000
   0.50000000  0.50000000  0.65000000
 
 position of ions in cartesian coordinates  (Angst):
   7.50000000  7.50000000  7.50000000
   7.50000000  7.50000000  9.75000000
 


--------------------------------------------------------------------------------------------------------


 k-point  1 :   0.0000 0.0000 0.0000  plane waves:   72935

 maximum and minimum number of plane-waves per node :      3049     3028

 maximum number of plane-waves:     72935
 maximum index in each direction: 
   IXMAX=   25   IYMAX=   25   IZMAX=   25
   IXMIN=  -25   IYMIN=  -25   IZMIN=  -25

 WARNING: aliasing errors must be expected set NGX to 102 to avoid them
 WARNING: aliasing errors must be expected set NGY to 102 to avoid them
 WARNING: aliasing errors must be expected set NGZ to 102 to avoid them
 aliasing errors are usually negligible using standard VASP settings
 and one can safely disregard these warnings

 real space projection operators:
  total allocation   :        275.17 KBytes
  max/ min on nodes  :         30.20          0.00


 parallel 3D FFT for wavefunctions:
    minimum data exchange during FFTs selected (reduces bandwidth)
 parallel 3D FFT for charge:
    minimum data exchange during FFTs selected (reduces bandwidth)


 total amount of memory used by VASP on root node    39137. kBytes
========================================================================

   base      :      30000. kBytes
   nonlr-proj:         52. kBytes
   fftplans  :       2467. kBytes
   grid      :       6195. kBytes
   one-center:         31. kBytes
   wavefun   :        392. kBytes
 
     INWAV:  cpu time    0.0000: real time    0.0000
 Broyden mixing: mesh for mixing (old mesh)
   NGX = 51   NGY = 51   NGZ = 51
  (NGX  =160   NGY  =160   NGZ  =160)
  gives a total of 132651 points

 initial charge density was supplied:
 charge density of overlapping atoms calculated
 number of electron      17.0000000 magnetization       2.0000000
 keeping initial charge density in first step


--------------------------------------------------------------------------------------------------------


 Maximum index for non-local projection operator            0
 Maximum index for augmentation-charges            0 (set IRDMAX)


--------------------------------------------------------------------------------------------------------


 First call to EWALD:  gamma=   0.118
 Maximum number of real-space cells 3x 3x 3
 Maximum number of reciprocal cells 3x 3x 3

 FEWALD executed in parallel
    FEWALD:  cpu time    0.0024: real time    0.0029


----------------------------------------- Iteration    1(   1)  ---------------------------------------


    POTLOK:  cpu time    0.0806: real time    0.0868
    SETDIJ:  cpu time    0.0105: real time    0.0109
     EDDAV:  cpu time    0.1205: real time    0.1577
       DOS:  cpu time    0.0041: real time    0.0047
    --------------------------------------------
      LOOP:  cpu time    0.2188: real time    0.2674

 eigenvalue-minimisations  :    80
 total energy-change (2. order) : 0.9274475E+02  (-0.2589033E+03)
 number of electron      17.0000000 magnetization       2.0000000
 augmentation part       17.0000000 magnetization       2.0000000

 Free energy of the ion-electron system (eV)
  ---------------------------------------------------
  alpha Z        PSCENC =         0.40886037
  Ewald energy   TEWEN  =        57.68220003
  -Hartree energ DENC   =     -1393.96913882
  -exchange      EXHF   =         0.00000000
  -V(xc)+E(xc)   XCENC  =        49.39247980
  PAW double counting   =      1288.02332773    -1354.97136724
  entropy T*S    EENTRO =        -0.02937638
  eigenvalues    EBANDS =       -41.18249019
  atomic energy  EATOM  =      1487.39025330
  Solvation  Ediel_sol  =         0.00000000
  ---------------------------------------------------
  free energy    TOTEN  =        92.74474860 eV

  energy without entropy =       92.77412498  energy(sigma->0) =       92.75209269


--------------------------------------------------------------------------------------------------------




----------------------------------------- Iteration    1(   2)  ---------------------------------------


     EDDAV:  cpu time    0.0942: real time    0.0942
       DOS:  cpu time    0.0005: real time    0.0005
    --------------------------------------------
      LOOP:  cpu time    0.0968: real time    0.1022

 eigenvalue-minimisations  :   128
 total energy-change (2. order) :-0.8141775E+02  (-0.7856088E+02)
 number of electron      17.0000000 magnetization       2.0000000
 augmentation part       17.0000000 magnetization       2.0000000

 Free energy of the ion-electron system (eV)
  ---------------------------------------------------
  alpha Z        PSCENC =         0.40886037
  Ewald energy   TEWEN  =        57.68220003
  -Hartree energ DENC   =     -1393.96913882
  -exchange      EXHF   =         0.00000000
  -V(xc)+E(xc)   XCENC  =        49.39247980
  PAW double counting   =      1288.02332773    -1354.97136724
  entropy T*S    EENTRO =        -0.00485541
  eigenvalues    EBANDS =      -122.62476574
  atomic energy  EATOM  =      1487.39025330
  Solvation  Ediel_sol  =         0.00000000
  ---------------------------------------------------
  free energy    TOTEN  =        11.32699401 eV

  energy without entropy =       11.33184942  energy(sigma->0) =       11.32820786


--------------------------------------------------------------------------------------------------------




----------------------------------------- Iteration    1(   3)  ---------------------------------------


     EDDAV:  cpu time    0.0552: real time    0.0552
       DOS:  cpu time    0.0010: real time    0.0010
    --------------------------------------------
      LOOP:  cpu time    0.0571: real time    0.0633

 eigenvalue-minimisations  :    64
 total energy-change (2. order) :-0.1632388E+02  (-0.1591451E+02)
 number of electron      17.0000000 magnetization       2.0000000
 augmentation part       17.0000000 magnetization       2.0000000

 Free energy of the ion-electron system (eV)
  ---------------------------------------------------
  alpha Z        PSCENC =         0.40886037
  Ewald energy   TEWEN  =        57.68220003
  -Hartree energ DENC   =     -1393.96913882
  -exchange      EXHF   =         0.00000000
  -V(xc)+E(xc)   XCENC  =        49.39247980
  PAW double counting   =      1288.02332773    -1354.97136724
  entropy T*S    EENTRO =         0.04161643
  eigenvalues    EBANDS =      -138.99511322
  atomic energy  EATOM  =      1487.39025330
  Solvation  Ediel_sol  =         0.00000000
  ---------------------------------------------------
  free energy    TOTEN  =        -4.99688162 eV

  energy without entropy =       -5.03849806  energy(sigma->0) =       -5.00728573


--------------------------------------------------------------------------------------------------------




----------------------------------------- Iteration    1(   4)  ---------------------------------------


     EDDAV:  cpu time    0.0551: real time    0.0551
       DOS:  cpu time    0.0003: real time    0.0003
    --------------------------------------------
      LOOP:  cpu time    0.0563: real time    0.0624

 eigenvalue-minimisations  :    64
 total energy-change (2. order) :-0.6266033E+00  (-0.5304173E+00)
 number of electron      17.0000000 magnetization       2.0000000
 augmentation part       17.0000000 magnetization       2.0000000

 Free energy of the ion-electron system (eV)
  ---------------------------------------------------
  alpha Z        PSCENC =         0.40886037
  Ewald energy   TEWEN  =        57.68220003
  -Hartree energ DENC   =     -1393.96913882
  -exchange      EXHF   =         0.00000000
  -V(xc)+E(xc)   XCENC  =        49.39247980
  PAW double counting   =      1288.02332773    -1354.97136724
  entropy T*S    EENTRO =        -0.05224170
  eigenvalues    EBANDS =      -139.52785835
  atomic energy  EATOM  =      1487.39025330
  Solvation  Ediel_sol  =         0.00000000
  ---------------------------------------------------
  free energy    TOTEN  =        -5.62348488 eV

  energy without entropy =       -5.57124318  energy(sigma->0) =       -5.61042446


--------------------------------------------------------------------------------------------------------




----------------------------------------- Iteration    1(   5)  ---------------------------------------


     EDDAV:  cpu time    0.0743: real time    0.0743
       DOS:  cpu time    0.0002: real time    0.0002
    CHARGE:  cpu time    0.0971: real time    0.0990
    MIXING:  cpu time    0.0082: real time    0.0093
    --------------------------------------------
      LOOP:  cpu time    0.1809: real time    0.1897

 eigenvalue-minimisations  :    96
 total energy-change (2. order) :-0.1499654E-01  (-0.1498386E-01)
 number of electron      16.9999994 magnetization       1.7612773
 augmentation part        5.1280887 magnetization       1.5949589

 Broyden mixing:
  rms(total) = 0.61714E+00    rms(broyden)= 0.61701E+00
  rms(prec ) = 0.72282E+00
  weight for this iteration     100.00

 Free energy of the ion-electron system (eV)
  ---------------------------------------------------
  alpha Z        PSCENC =         0.40886037
  Ewald energy   TEWEN  =        57.68220003
  -Hartree energ DENC   =     -1393.96913882
  -exchange      EXHF   =         0.00000000
  -V(xc)+E(xc)   XCENC  =        49.39247980
  PAW double counting   =      1288.02332773    -1354.97136724
  entropy T*S    EENTRO =        -0.05227408
  eigenvalues    EBANDS =      -139.54282251
  atomic energy  EATOM  =      1487.39025330
  Solvation  Ediel_sol  =         0.00000000
  ---------------------------------------------------
  free energy    TOTEN  =        -5.63848143 eV

  energy without entropy =       -5.58620735  energy(sigma->0) =       -5.62541291


--------------------------------------------------------------------------------------------------------




----------------------------------------- Iteration    1(   6)  ---------------------------------------


    POTLOK:  cpu time    0.0679: real time    0.0679
    SETDIJ:  cpu time    0.0047: real time    0.0047
    EDDIAG:  cpu time    0.0175: real time    0.0189
  RMM-DIIS:  cpu time    0.0544: real time    0.0554
    ORTHCH:  cpu time    0.0029: real time    0.0029
       DOS:  cpu time    0.0012: real time    0.0012
    CHARGE:  cpu time    0.0898: real time    0.0898
    MIXING:  cpu time    0.0027: real time    0.0033
    --------------------------------------------
      LOOP:  cpu time    0.2426: real time    0.2517

 eigenvalue-minimisations  :    64
 total energy-change (2. order) : 0.1911342E+01  (-0.6139061E+00)
 number of electron      17.0000002 magnetization       1.6784095
 augmentation part        5.7722013 magnetization       1.3706712

 Broyden mixing:
  rms(total) = 0.75509E+00    rms(broyden)= 0.75340E+00
  rms(prec ) = 0.79915E+00
  weight for this iteration     100.00

 eigenvalues of (default mixing * dielectric matrix)
  average eigenvalue GAMMA=   0.4502
  0.4502

 Free energy of the ion-electron system (eV)
  ---------------------------------------------------
  alpha Z        PSCENC =         0.40886037
  Ewald energy   TEWEN  =        57.68220003
  -Hartree energ DENC   =     -1384.80830647
  -exchange      EXHF   =         0.00000000
  -V(xc)+E(xc)   XCENC  =        50.43594740
  PAW double counting   =      1308.85071295    -1373.15126878
  entropy T*S    EENTRO =        -0.01038514
  eigenvalues    EBANDS =      -150.52515280
  atomic energy  EATOM  =      1487.39025330
  Solvation  Ediel_sol  =         0.00000000
  ---------------------------------------------------
  free energy    TOTEN  =        -3.72713915 eV

  energy without entropy =       -3.71675402  energy(sigma->0) =       -3.72454287


--------------------------------------------------------------------------------------------------------




----------------------------------------- Iteration    1(   7)  ---------------------------------------


    POTLOK:  cpu time    0.0645: real time    0.0645
    SETDIJ:  cpu time    0.0037: real time    0.0037
    EDDIAG:  cpu time    0.0129: real time    0.0129
  RMM-DIIS:  cpu time    0.0349: real time    0.0349
    ORTHCH:  cpu time    0.0030: real time    0.0030
       DOS:  cpu time    0.0003: real time    0.0003
    CHARGE:  cpu time    0.0841: real time    0.0841
    MIXING:  cpu time    0.0021: real time    0.0026
    --------------------------------------------
      LOOP:  cpu time    0.2067: real time    0.2136

 eigenvalue-minimisations  :    64
 total energy-change (2. order) :-0.1880734E-01  (-0.1028013E+00)
 number of electron      17.0000001 magnetization       1.4886375
 augmentation part        5.4962147 magnetization       1.2483353

 Broyden mixing:
  rms(total) = 0.34878E+00    rms(broyden)= 0.34840E+00
  rms(prec ) = 0.38087E+00
  weight for this iteration     100.00

 eigenvalues of (default mixing * dielectric matrix)
  average eigenvalue GAMMA=   0.7202
  0.8742  0.5663

 Free energy of the ion-electron system (eV)
  ---------------------------------------------------
  alpha Z        PSCENC =         0.40886037
  Ewald energy   TEWEN  =        57.68220003
  -Hartree energ DENC   =     -1393.78631495
  -exchange      EXHF   =         0.00000000
  -V(xc)+E(xc)   XCENC  =        50.55658081
  PAW double counting   =      1339.83237214    -1406.27365337
  entropy T*S    EENTRO =        -0.00626486
  eigenvalues    EBANDS =      -139.54997996
  atomic energy  EATOM  =      1487.39025330
  Solvation  Ediel_sol  =         0.00000000
  ---------------------------------------------------
  free energy    TOTEN  =        -3.74594649 eV

  energy without entropy =       -3.73968164  energy(sigma->0) =       -3.74438028


--------------------------------------------------------------------------------------------------------




----------------------------------------- Iteration    1(   8)  ---------------------------------------


    POTLOK:  cpu time    0.0646: real time    0.0646
    SETDIJ:  cpu time    0.0036: real time    0.0036
    EDDIAG:  cpu time    0.0130: real time    0.0130
  RMM-DIIS:  cpu time    0.0341: real time    0.0341
    ORTHCH:  cpu time    0.0030: real time    0.0030
       DOS:  cpu time    0.0003: real time    0.0002
    CHARGE:  cpu time    0.0837: real time    0.0837
    MIXING:  cpu time    0.0020: real time    0.0020
    --------------------------------------------
      LOOP:  cpu time    0.2054: real time    0.2115

 eigenvalue-minimisations  :    64
 total energy-change (2. order) : 0.1843680E+00  (-0.3674663E-01)
 number of electron      17.0000001 magnetization       1.3438135
 augmentation part        5.4659141 magnetization       1.1017114

 Broyden mixing:
  rms(total) = 0.19432E+00    rms(broyden)= 0.19428E+00
  rms(prec ) = 0.21411E+00
  weight for this iteration     100.00

 eigenvalues of (default mixing * dielectric matrix)
  average eigenvalue GAMMA=   0.7976
  0.4920  1.0823  0.8186

 Free energy of the ion-electron system (eV)
  ---------------------------------------------------
  alpha Z        PSCENC =         0.40886037
  Ewald energy   TEWEN  =        57.68220003
  -Hartree energ DENC   =     -1398.15333650
  -exchange      EXHF   =         0.00000000
  -V(xc)+E(xc)   XCENC  =        50.94220498
  PAW double counting   =      1382.22288701    -1449.33281629
  entropy T*S    EENTRO =        -0.02147155
  eigenvalues    EBANDS =      -134.70035983
  atomic energy  EATOM  =      1487.39025330
  Solvation  Ediel_sol  =         0.00000000
  ---------------------------------------------------
  free energy    TOTEN  =        -3.56157848 eV

  energy without entropy =       -3.54010694  energy(sigma->0) =       -3.55621060


--------------------------------------------------------------------------------------------------------




----------------------------------------- Iteration    1(   9)  ---------------------------------------


    POTLOK:  cpu time    0.0647: real time    0.0647
    SETDIJ:  cpu time    0.0034: real time    0.0034
    EDDIAG:  cpu time    0.0129: real time    0.0129
  RMM-DIIS:  cpu time    0.0342: real time    0.0342
    ORTHCH:  cpu time    0.0029: real time    0.0029
       DOS:  cpu time    0.0002: real time    0.0003
    CHARGE:  cpu time    0.0844: real time    0.0844
    MIXING:  cpu time    0.0022: real time    0.0025
    --------------------------------------------
      LOOP:  cpu time    0.2062: real time    0.2132

 eigenvalue-minimisations  :    64
 total energy-change (2. order) :-0.3027810E+00  (-0.1411267E-01)
 number of electron      16.9999996 magnetization       1.3350127
 augmentation part        5.4244762 magnetization       1.1250007

 Broyden mixing:
  rms(total) = 0.36288E+00    rms(broyden)= 0.35921E+00
  rms(prec ) = 0.37399E+00
  weight for this iteration     100.00

 eigenvalues of (default mixing * dielectric matrix)
  average eigenvalue GAMMA=   0.6428
  1.0152  0.5635  0.5635  0.4289

 Free energy of the ion-electron system (eV)
  ---------------------------------------------------
  alpha Z        PSCENC =         0.40886037
  Ewald energy   TEWEN  =        57.68220003
  -Hartree energ DENC   =     -1399.60152669
  -exchange      EXHF   =         0.00000000
  -V(xc)+E(xc)   XCENC  =        50.74196766
  PAW double counting   =      1407.39935055    -1474.65264942
  entropy T*S    EENTRO =        -0.06119545
  eigenvalues    EBANDS =      -133.17161982
  atomic energy  EATOM  =      1487.39025330
  Solvation  Ediel_sol  =         0.00000000
  ---------------------------------------------------
  free energy    TOTEN  =        -3.86435949 eV

  energy without entropy =       -3.80316404  energy(sigma->0) =       -3.84906063


--------------------------------------------------------------------------------------------------------




----------------------------------------- Iteration    1(  10)  ---------------------------------------


    POTLOK:  cpu time    0.0648: real time    0.0648
    SETDIJ:  cpu time    0.0034: real time    0.0034
    EDDIAG:  cpu time    0.0129: real time    0.0129
  RMM-DIIS:  cpu time    0.0388: real time    0.0388
    ORTHCH:  cpu time    0.0030: real time    0.0030
       DOS:  cpu time    0.0002: real time    0.0002
    CHARGE:  cpu time    0.0839: real time    0.0839
    MIXING:  cpu time    0.0023: real time    0.0023
    --------------------------------------------
      LOOP:  cpu time    0.2110: real time    0.2174

 eigenvalue-minimisations  :    66
 total energy-change (2. order) :-0.1915823E-01  (-0.2887562E-02)
 number of electron      16.9999995 magnetization       1.3185644
 augmentation part        5.4125718 magnetization       1.1157786

 Broyden mixing:
  rms(total) = 0.32595E+00    rms(broyden)= 0.32551E+00
  rms(prec ) = 0.34174E+00
  weight for this iteration     100.00

 eigenvalues of (default mixing * dielectric matrix)
  average eigenvalue GAMMA=   0.8443
  0.9185  0.9185  1.2496  0.5023  0.6326

 Free energy of the ion-electron system (eV)
  ---------------------------------------------------
  alpha Z        PSCENC =         0.40886037
  Ewald energy   TEWEN  =        57.68220003
  -Hartree energ DENC   =     -1399.83619221
  -exchange      EXHF   =         0.00000000
  -V(xc)+E(xc)   XCENC  =        50.72476064
  PAW double counting   =      1408.10855560    -1475.45157749
  entropy T*S    EENTRO =        -0.05919677
  eigenvalues    EBANDS =      -132.85118116
  atomic energy  EATOM  =      1487.39025330
  Solvation  Ediel_sol  =         0.00000000
  ---------------------------------------------------
  free energy    TOTEN  =        -3.88351772 eV

  energy without entropy =       -3.82432094  energy(sigma->0) =       -3.86871852


--------------------------------------------------------------------------------------------------------




----------------------------------------- Iteration    1(  11)  ---------------------------------------


    POTLOK:  cpu time    0.0647: real time    0.0647
    SETDIJ:  cpu time    0.0037: real time    0.0037
    EDDIAG:  cpu time    0.0129: real time    0.0129
  RMM-DIIS:  cpu time    0.0397: real time    0.0397
    ORTHCH:  cpu time    0.0029: real time    0.0029
       DOS:  cpu time    0.0003: real time    0.0003
    CHARGE:  cpu time    0.0844: real time    0.0844
    MIXING:  cpu time    0.0023: real time    0.0023
    --------------------------------------------
      LOOP:  cpu time    0.2121: real time    0.2184

 eigenvalue-minimisations  :    66
 total energy-change (2. order) : 0.2991349E-01  (-0.3030975E-02)
 number of electron      17.0000000 magnetization       1.2109158
 augmentation part        5.4421839 magnetization       0.9786804

 Broyden mixing:
  rms(total) = 0.16416E+00    rms(broyden)= 0.15887E+00
  rms(prec ) = 0.17034E+00
  weight for this iteration     100.00

 eigenvalues of (default mixing * dielectric matrix)
  average eigenvalue GAMMA=   0.8733
  1.4141  1.4141  0.6545  0.6545  0.5265  0.5757

 Free energy of the ion-electron system (eV)
  ---------------------------------------------------
  alpha Z        PSCENC =         0.40886037
  Ewald energy   TEWEN  =        57.68220003
  -Hartree energ DENC   =     -1399.24667888
  -exchange      EXHF   =         0.00000000
  -V(xc)+E(xc)   XCENC  =        50.68993945
  PAW double counting   =      1408.75010926    -1476.03922839
  entropy T*S    EENTRO =        -0.03444745
  eigenvalues    EBANDS =      -133.45461192
  atomic energy  EATOM  =      1487.39025330
  Solvation  Ediel_sol  =         0.00000000
  ---------------------------------------------------
  free energy    TOTEN  =        -3.85360423 eV

  energy without entropy =       -3.81915678  energy(sigma->0) =       -3.84499237


--------------------------------------------------------------------------------------------------------




----------------------------------------- Iteration    1(  12)  ---------------------------------------


    POTLOK:  cpu time    0.0647: real time    0.0647
    SETDIJ:  cpu time    0.0035: real time    0.0035
    EDDIAG:  cpu time    0.0129: real time    0.0129
  RMM-DIIS:  cpu time    0.0342: real time    0.0342
    ORTHCH:  cpu time    0.0030: real time    0.0030
       DOS:  cpu time    0.0002: real time    0.0002
    CHARGE:  cpu time    0.0843: real time    0.0843
    MIXING:  cpu time    0.0025: real time    0.0025
    --------------------------------------------
      LOOP:  cpu time    0.2066: real time    0.2121

 eigenvalue-minimisations  :    64
 total energy-change (2. order) :-0.5589843E+00  (-0.7879426E-02)
 number of electron      16.9999998 magnetization       1.1424716
 augmentation part        5.4428724 magnetization       0.9125973

 Broyden mixing:
  rms(total) = 0.56740E-01    rms(broyden)= 0.56607E-01
  rms(prec ) = 0.70605E-01
  weight for this iteration     100.00

 eigenvalues of (default mixing * dielectric matrix)
  average eigenvalue GAMMA=   0.9247
  1.9803  1.3219  0.6659  0.6659  0.7107  0.6131  0.5150

 Free energy of the ion-electron system (eV)
  ---------------------------------------------------
  alpha Z        PSCENC =         0.40886037
  Ewald energy   TEWEN  =        57.68220003
  -Hartree energ DENC   =     -1398.96553117
  -exchange      EXHF   =         0.00000000
  -V(xc)+E(xc)   XCENC  =        50.12937789
  PAW double counting   =      1420.53097014    -1487.70978855
  entropy T*S    EENTRO =        -0.05426885
  eigenvalues    EBANDS =      -133.82466166
  atomic energy  EATOM  =      1487.39025330
  Solvation  Ediel_sol  =         0.00000000
  ---------------------------------------------------
  free energy    TOTEN  =        -4.41258850 eV

  energy without entropy =       -4.35831966  energy(sigma->0) =       -4.39902129


--------------------------------------------------------------------------------------------------------




----------------------------------------- Iteration    1(  13)  ---------------------------------------


    POTLOK:  cpu time    0.0642: real time    0.0643
    SETDIJ:  cpu time    0.0036: real time    0.0036
    EDDIAG:  cpu time    0.0131: real time    0.0131
  RMM-DIIS:  cpu time    0.0345: real time    0.0345
    ORTHCH:  cpu time    0.0030: real time    0.0030
       DOS:  cpu time    0.0002: real time    0.0002
    CHARGE:  cpu time    0.0874: real time    0.0874
    MIXING:  cpu time    0.0026: real time    0.0026
    --------------------------------------------
      LOOP:  cpu time    0.2098: real time    0.2163

 eigenvalue-minimisations  :    64
 total energy-change (2. order) :-0.1444342E+00  (-0.1237699E-02)
 number of electron      16.9999999 magnetization       1.1020783
 augmentation part        5.4349687 magnetization       0.8787408

 Broyden mixing:
  rms(total) = 0.39921E-01    rms(broyden)= 0.39900E-01
  rms(prec ) = 0.51749E-01
  weight for this iteration     100.00

 eigenvalues of (default mixing * dielectric matrix)
  average eigenvalue GAMMA=   0.8970
  1.8408  0.6596  0.6596  1.3017  0.9296  0.5032  0.6409  0.6409

 Free energy of the ion-electron system (eV)
  ---------------------------------------------------
  alpha Z        PSCENC =         0.40886037
  Ewald energy   TEWEN  =        57.68220003
  -Hartree energ DENC   =     -1399.36996509
  -exchange      EXHF   =         0.00000000
  -V(xc)+E(xc)   XCENC  =        49.99938937
  PAW double counting   =      1423.54213038    -1490.76251114
  entropy T*S    EENTRO =        -0.05217410
  eigenvalues    EBANDS =      -133.39520585
  atomic energy  EATOM  =      1487.39025330
  Solvation  Ediel_sol  =         0.00000000
  ---------------------------------------------------
  free energy    TOTEN  =        -4.55702274 eV

  energy without entropy =       -4.50484864  energy(sigma->0) =       -4.54397921


--------------------------------------------------------------------------------------------------------




----------------------------------------- Iteration    1(  14)  ---------------------------------------


    POTLOK:  cpu time    0.0648: real time    0.0648
    SETDIJ:  cpu time    0.0034: real time    0.0034
    EDDIAG:  cpu time    0.0129: real time    0.0129
  RMM-DIIS:  cpu time    0.0340: real time    0.0340
    ORTHCH:  cpu time    0.0029: real time    0.0029
       DOS:  cpu time    0.0003: real time    0.0003
    CHARGE:  cpu time    0.0872: real time    0.0872
    MIXING:  cpu time    0.0028: real time    0.0028
    --------------------------------------------
      LOOP:  cpu time    0.2096: real time    0.2161

 eigenvalue-minimisations  :    64
 total energy-change (2. order) :-0.7816037E-01  (-0.3770354E-03)
 number of electron      16.9999999 magnetization       1.0313596
 augmentation part        5.4369806 magnetization       0.8079480

 Broyden mixing:
  rms(total) = 0.24301E-01    rms(broyden)= 0.23870E-01
  rms(prec ) = 0.34775E-01
  weight for this iteration     100.00

 eigenvalues of (default mixing * dielectric matrix)
  average eigenvalue GAMMA=   0.9726
  1.8783  1.8783  0.6574  0.6574  0.9564  0.9564  0.5068  0.6313  0.6313

 Free energy of the ion-electron system (eV)
  ---------------------------------------------------
  alpha Z        PSCENC =         0.40886037
  Ewald energy   TEWEN  =        57.68220003
  -Hartree energ DENC   =     -1399.50236564
  -exchange      EXHF   =         0.00000000
  -V(xc)+E(xc)   XCENC  =        49.92775867
  PAW double counting   =      1420.65745816    -1487.86770078
  entropy T*S    EENTRO =        -0.04797298
  eigenvalues    EBANDS =      -133.28367423
  atomic energy  EATOM  =      1487.39025330
  Solvation  Ediel_sol  =         0.00000000
  ---------------------------------------------------
  free energy    TOTEN  =        -4.63518310 eV

  energy without entropy =       -4.58721013  energy(sigma->0) =       -4.62318986


--------------------------------------------------------------------------------------------------------




----------------------------------------- Iteration    1(  15)  ---------------------------------------


    POTLOK:  cpu time    0.0645: real time    0.0645
    SETDIJ:  cpu time    0.0035: real time    0.0035
    EDDIAG:  cpu time    0.0128: real time    0.0128
  RMM-DIIS:  cpu time    0.0342: real time    0.0343
    ORTHCH:  cpu time    0.0030: real time    0.0030
       DOS:  cpu time    0.0002: real time    0.0002
    CHARGE:  cpu time    0.0870: real time    0.0870
    MIXING:  cpu time    0.0030: real time    0.0030
    --------------------------------------------
      LOOP:  cpu time    0.2095: real time    0.2159

 eigenvalue-minimisations  :    64
 total energy-change (2. order) :-0.8798580E-01  (-0.7737095E-03)
 number of electron      17.0000000 magnetization       1.0308923
 augmentation part        5.4393745 magnetization       0.8105733

 Broyden mixing:
  rms(total) = 0.31828E-01    rms(broyden)= 0.30756E-01
  rms(prec ) = 0.35136E-01
  weight for this iteration     100.00

 eigenvalues of (default mixing * dielectric matrix)
  average eigenvalue GAMMA=   0.9041
  1.9138  1.9138  0.6573  0.6573  0.9689  0.9689  0.5068  0.6295  0.6295  0.1949

 Free energy of the ion-electron system (eV)
  ---------------------------------------------------
  alpha Z        PSCENC =         0.40886037
  Ewald energy   TEWEN  =        57.68220003
  -Hartree energ DENC   =     -1399.47474035
  -exchange      EXHF   =         0.00000000
  -V(xc)+E(xc)   XCENC  =        49.82800969
  PAW double counting   =      1415.31521233    -1482.46987857
  entropy T*S    EENTRO =        -0.04666909
  eigenvalues    EBANDS =      -133.35641661
  atomic energy  EATOM  =      1487.39025330
  Solvation  Ediel_sol  =         0.00000000
  ---------------------------------------------------
  free energy    TOTEN  =        -4.72316891 eV

  energy without entropy =       -4.67649982  energy(sigma->0) =       -4.71150163


--------------------------------------------------------------------------------------------------------




----------------------------------------- Iteration    1(  16)  ---------------------------------------


    POTLOK:  cpu time    0.0648: real time    0.0648
    SETDIJ:  cpu time    0.0035: real time    0.0035
    EDDIAG:  cpu time    0.0129: real time    0.0129
  RMM-DIIS:  cpu time    0.0356: real time    0.0356
    ORTHCH:  cpu time    0.0030: real time    0.0030
       DOS:  cpu time    0.0002: real time    0.0003
    CHARGE:  cpu time    0.0872: real time    0.0872
    MIXING:  cpu time    0.0030: real time    0.0030
    --------------------------------------------
      LOOP:  cpu time    0.2115: real time    0.2179

 eigenvalue-minimisations  :    67
 total energy-change (2. order) : 0.3456776E-03  (-0.1017632E-03)
 number of electron      17.0000000 magnetization       1.0012519
 augmentation part        5.4391880 magnetization       0.7817405

 Broyden mixing:
  rms(total) = 0.32956E-01    rms(broyden)= 0.32840E-01
  rms(prec ) = 0.37000E-01
  weight for this iteration     100.00

 eigenvalues of (default mixing * dielectric matrix)
  average eigenvalue GAMMA=   0.9930
  2.3383  2.3383  1.2671  0.6583  0.6583  0.7417  0.7417  0.5098  0.6692  0.5951
  0.4055

 Free energy of the ion-electron system (eV)
  ---------------------------------------------------
  alpha Z        PSCENC =         0.40886037
  Ewald energy   TEWEN  =        57.68220003
  -Hartree energ DENC   =     -1399.47750928
  -exchange      EXHF   =         0.00000000
  -V(xc)+E(xc)   XCENC  =        49.82863762
  PAW double counting   =      1415.38654800    -1482.54315765
  entropy T*S    EENTRO =        -0.04665898
  eigenvalues    EBANDS =      -133.35199663
  atomic energy  EATOM  =      1487.39025330
  Solvation  Ediel_sol  =         0.00000000
  ---------------------------------------------------
  free energy    TOTEN  =        -4.72282323 eV

  energy without entropy =       -4.67616425  energy(sigma->0) =       -4.71115848


--------------------------------------------------------------------------------------------------------




----------------------------------------- Iteration    1(  17)  ---------------------------------------


    POTLOK:  cpu time    0.0647: real time    0.0647
    SETDIJ:  cpu time    0.0036: real time    0.0036
    EDDIAG:  cpu time    0.0128: real time    0.0128
  RMM-DIIS:  cpu time    0.0338: real time    0.0338
    ORTHCH:  cpu time    0.0030: real time    0.0030
       DOS:  cpu time    0.0002: real time    0.0002
    CHARGE:  cpu time    0.0900: real time    0.0900
    MIXING:  cpu time    0.0032: real time    0.0032
    --------------------------------------------
      LOOP:  cpu time    0.2127: real time    0.2188

 eigenvalue-minimisations  :    64
 total energy-change (2. order) : 0.2454173E-02  (-0.1693481E-03)
 number of electron      16.9999999 magnetization       0.9835970
 augmentation part        5.4390520 magnetization       0.7625484

 Broyden mixing:
  rms(total) = 0.26456E-01    rms(broyden)= 0.26234E-01
  rms(prec ) = 0.29461E-01
  weight for this iteration     100.00

 eigenvalues of (default mixing * dielectric matrix)
  average eigenvalue GAMMA=   1.0442
  2.9898  2.4102  0.6579  0.6579  1.2129  0.8711  0.8711  0.5069  0.6459  0.6025
  0.6025  0.5020

 Free energy of the ion-electron system (eV)
  ---------------------------------------------------
  alpha Z        PSCENC =         0.40886037
  Ewald energy   TEWEN  =        57.68220003
  -Hartree energ DENC   =     -1399.66616004
  -exchange      EXHF   =         0.00000000
  -V(xc)+E(xc)   XCENC  =        49.82886902
  PAW double counting   =      1415.01285350    -1482.16461465
  entropy T*S    EENTRO =        -0.04795083
  eigenvalues    EBANDS =      -133.16467975
  atomic energy  EATOM  =      1487.39025330
  Solvation  Ediel_sol  =         0.00000000
  ---------------------------------------------------
  free energy    TOTEN  =        -4.72036905 eV

  energy without entropy =       -4.67241823  energy(sigma->0) =       -4.70838135


--------------------------------------------------------------------------------------------------------




----------------------------------------- Iteration    1(  18)  ---------------------------------------


    POTLOK:  cpu time    0.0644: real time    0.0644
    SETDIJ:  cpu time    0.0034: real time    0.0034
    EDDIAG:  cpu time    0.0129: real time    0.0129
  RMM-DIIS:  cpu time    0.0339: real time    0.0339
    ORTHCH:  cpu time    0.0030: real time    0.0030
       DOS:  cpu time    0.0002: real time    0.0002
    CHARGE:  cpu time    0.0869: real time    0.0869
    MIXING:  cpu time    0.0034: real time    0.0034
    --------------------------------------------
      LOOP:  cpu time    0.2094: real time    0.2158

 eigenvalue-minimisations  :    64
 total energy-change (2. order) :-0.4680718E-02  (-0.9685849E-04)
 number of electron      16.9999999 magnetization       0.9803286
 augmentation part        5.4359993 magnetization       0.7611941

 Broyden mixing:
  rms(total) = 0.19427E-01    rms(broyden)= 0.18886E-01
  rms(prec ) = 0.21463E-01
  weight for this iteration     100.00

 eigenvalues of (default mixing * dielectric matrix)
  average eigenvalue GAMMA=   1.0642
  3.5664  2.2574  0.5265  0.6578  0.6578  1.0374  1.0374  0.7559  0.7559  0.8504
  0.5074  0.6119  0.6119

 Free energy of the ion-electron system (eV)
  ---------------------------------------------------
  alpha Z        PSCENC =         0.40886037
  Ewald energy   TEWEN  =        57.68220003
  -Hartree energ DENC   =     -1399.75807248
  -exchange      EXHF   =         0.00000000
  -V(xc)+E(xc)   XCENC  =        49.82026341
  PAW double counting   =      1414.63097783    -1481.78035816
  entropy T*S    EENTRO =        -0.05050755
  eigenvalues    EBANDS =      -133.06866651
  atomic energy  EATOM  =      1487.39025330
  Solvation  Ediel_sol  =         0.00000000
  ---------------------------------------------------
  free energy    TOTEN  =        -4.72504977 eV

  energy without entropy =       -4.67454222  energy(sigma->0) =       -4.71242289


--------------------------------------------------------------------------------------------------------




----------------------------------------- Iteration    1(  19)  ---------------------------------------


    POTLOK:  cpu time    0.0646: real time    0.0646
    SETDIJ:  cpu time    0.0037: real time    0.0037
    EDDIAG:  cpu time    0.0129: real time    0.0129
  RMM-DIIS:  cpu time    0.0341: real time    0.0341
    ORTHCH:  cpu time    0.0030: real time    0.0030
       DOS:  cpu time    0.0003: real time    0.0003
    CHARGE:  cpu time    0.0868: real time    0.0868
    MIXING:  cpu time    0.0035: real time    0.0035
    --------------------------------------------
      LOOP:  cpu time    0.2100: real time    0.2166

 eigenvalue-minimisations  :    64
 total energy-change (2. order) :-0.5175933E-02  (-0.6071315E-04)
 number of electron      16.9999999 magnetization       0.9837346
 augmentation part        5.4355454 magnetization       0.7670520

 Broyden mixing:
  rms(total) = 0.19076E-01    rms(broyden)= 0.18712E-01
  rms(prec ) = 0.20649E-01
  weight for this iteration     100.00

 eigenvalues of (default mixing * dielectric matrix)
  average eigenvalue GAMMA=   1.1331
  3.8380  2.2301  1.3766  1.2094  1.2094  0.6578  0.6578  0.5339  0.8569  0.8569
  0.5074  0.7083  0.6105  0.6105

 Free energy of the ion-electron system (eV)
  ---------------------------------------------------
  alpha Z        PSCENC =         0.40886037
  Ewald energy   TEWEN  =        57.68220003
  -Hartree energ DENC   =     -1399.75423772
  -exchange      EXHF   =         0.00000000
  -V(xc)+E(xc)   XCENC  =        49.81223267
  PAW double counting   =      1414.67511553    -1481.82512280
  entropy T*S    EENTRO =        -0.05139173
  eigenvalues    EBANDS =      -133.06813534
  atomic energy  EATOM  =      1487.39025330
  Solvation  Ediel_sol  =         0.00000000
  ---------------------------------------------------
  free energy    TOTEN  =        -4.73022571 eV

  energy without entropy =       -4.67883397  energy(sigma->0) =       -4.71737777


--------------------------------------------------------------------------------------------------------




----------------------------------------- Iteration    1(  20)  ---------------------------------------


    POTLOK:  cpu time    0.0648: real time    0.0648
    SETDIJ:  cpu time    0.0035: real time    0.0035
    EDDIAG:  cpu time    0.0129: real time    0.0129
  RMM-DIIS:  cpu time    0.0339: real time    0.0339
    ORTHCH:  cpu time    0.0029: real time    0.0029
       DOS:  cpu time    0.0002: real time    0.0003
    CHARGE:  cpu time    0.0871: real time    0.0871
    MIXING:  cpu time    0.0037: real time    0.0037
    --------------------------------------------
      LOOP:  cpu time    0.2104: real time    0.2169

 eigenvalue-minimisations  :    64
 total energy-change (2. order) :-0.7751470E-02  (-0.1386551E-03)
 number of electron      16.9999998 magnetization       0.9886710
 augmentation part        5.4367958 magnetization       0.7735801

 Broyden mixing:
  rms(total) = 0.70763E-02    rms(broyden)= 0.47221E-02
  rms(prec ) = 0.60157E-02
  weight for this iteration     100.00
  WARNING: grid for Broyden might be to small

 eigenvalues of (default mixing * dielectric matrix)
  average eigenvalue GAMMA=   1.2463
  4.7316  2.7542  1.8915  0.5351  0.6578  0.6578  1.2759  1.2759  0.8580  0.8580
  0.8204  0.5077  0.6312  0.6312  0.6080

 Free energy of the ion-electron system (eV)
  ---------------------------------------------------
  alpha Z        PSCENC =         0.40886037
  Ewald energy   TEWEN  =        57.68220003
  -Hartree energ DENC   =     -1399.74292426
  -exchange      EXHF   =         0.00000000
  -V(xc)+E(xc)   XCENC  =        49.80227610
  PAW double counting   =      1415.09081879    -1482.26270232
  entropy T*S    EENTRO =        -0.04950555
  eigenvalues    EBANDS =      -133.05725363
  atomic energy  EATOM  =      1487.39025330
  Solvation  Ediel_sol  =         0.00000000
  ---------------------------------------------------
  free energy    TOTEN  =        -4.73797718 eV

  energy without entropy =       -4.68847163  energy(sigma->0) =       -4.72560079


--------------------------------------------------------------------------------------------------------




----------------------------------------- Iteration    1(  21)  ---------------------------------------


    POTLOK:  cpu time    0.0646: real time    0.0646
    SETDIJ:  cpu time    0.0034: real time    0.0034
    EDDIAG:  cpu time    0.0129: real time    0.0129
  RMM-DIIS:  cpu time    0.0340: real time    0.0340
    ORTHCH:  cpu time    0.0029: real time    0.0029
       DOS:  cpu time    0.0003: real time    0.0003
    CHARGE:  cpu time    0.0868: real time    0.0868
    MIXING:  cpu time    0.0038: real time    0.0038
    --------------------------------------------
      LOOP:  cpu time    0.2099: real time    0.2164

 eigenvalue-minimisations  :    64
 total energy-change (2. order) :-0.4581543E-02  (-0.8736768E-04)
 number of electron      16.9999998 magnetization       0.9923270
 augmentation part        5.4357835 magnetization       0.7775449

 Broyden mixing:
  rms(total) = 0.82157E-02    rms(broyden)= 0.78756E-02
  rms(prec ) = 0.82784E-02
  weight for this iteration     100.00

 eigenvalues of (default mixing * dielectric matrix)
  average eigenvalue GAMMA=   1.2875
  5.5644  2.8673  2.0228  0.5350  0.6578  0.6578  1.2272  1.2272  0.9873  0.9873
  0.7499  0.7499  0.5075  0.6068  0.6068  0.6452

 Free energy of the ion-electron system (eV)
  ---------------------------------------------------
  alpha Z        PSCENC =         0.40886037
  Ewald energy   TEWEN  =        57.68220003
  -Hartree energ DENC   =     -1399.69355271
  -exchange      EXHF   =         0.00000000
  -V(xc)+E(xc)   XCENC  =        49.79286371
  PAW double counting   =      1415.13313446    -1482.31868562
  entropy T*S    EENTRO =        -0.04929194
  eigenvalues    EBANDS =      -133.08834033
  atomic energy  EATOM  =      1487.39025330
  Solvation  Ediel_sol  =         0.00000000
  ---------------------------------------------------
  free energy    TOTEN  =        -4.74255872 eV

  energy without entropy =       -4.69326678  energy(sigma->0) =       -4.73023573


--------------------------------------------------------------------------------------------------------




----------------------------------------- Iteration    1(  22)  ---------------------------------------


    POTLOK:  cpu time    0.0644: real time    0.0644
    SETDIJ:  cpu time    0.0035: real time    0.0035
    EDDIAG:  cpu time    0.0130: real time    0.0130
  RMM-DIIS:  cpu time    0.0362: real time    0.0362
    ORTHCH:  cpu time    0.0029: real time    0.0029
       DOS:  cpu time    0.0003: real time    0.0003
    CHARGE:  cpu time    0.0866: real time    0.0866
    MIXING:  cpu time    0.0040: real time    0.0040
    --------------------------------------------
      LOOP:  cpu time    0.2121: real time    0.2186

 eigenvalue-minimisations  :    64
 total energy-change (2. order) :-0.1308892E-02  (-0.2707085E-04)
 number of electron      16.9999998 magnetization       0.9969308
 augmentation part        5.4357057 magnetization       0.7809961

 Broyden mixing:
  rms(total) = 0.71872E-02    rms(broyden)= 0.71820E-02
  rms(prec ) = 0.74709E-02
  weight for this iteration     100.00

 eigenvalues of (default mixing * dielectric matrix)
  average eigenvalue GAMMA=   1.4231
  7.0292  2.9169  2.3864  0.5350  0.6578  0.6578  1.4491  1.4491  1.4352  0.8948
  0.8948  0.7636  0.7636  0.5075  0.6186  0.6186  0.6152

 Free energy of the ion-electron system (eV)
  ---------------------------------------------------
  alpha Z        PSCENC =         0.40886037
  Ewald energy   TEWEN  =        57.68220003
  -Hartree energ DENC   =     -1399.63328973
  -exchange      EXHF   =         0.00000000
  -V(xc)+E(xc)   XCENC  =        49.78741795
  PAW double counting   =      1415.23049274    -1482.42180280
  entropy T*S    EENTRO =        -0.04940520
  eigenvalues    EBANDS =      -133.13859426
  atomic energy  EATOM  =      1487.39025330
  Solvation  Ediel_sol  =         0.00000000
  ---------------------------------------------------
  free energy    TOTEN  =        -4.74386761 eV

  energy without entropy =       -4.69446241  energy(sigma->0) =       -4.73151631


--------------------------------------------------------------------------------------------------------




----------------------------------------- Iteration    1(  23)  ---------------------------------------


    POTLOK:  cpu time    0.0647: real time    0.0647
    SETDIJ:  cpu time    0.0036: real time    0.0036
    EDDIAG:  cpu time    0.0130: real time    0.0130
  RMM-DIIS:  cpu time    0.0341: real time    0.0341
    ORTHCH:  cpu time    0.0030: real time    0.0030
       DOS:  cpu time    0.0002: real time    0.0002
    CHARGE:  cpu time    0.0845: real time    0.0845
    MIXING:  cpu time    0.0041: real time    0.0041
    --------------------------------------------
      LOOP:  cpu time    0.2086: real time    0.2151

 eigenvalue-minimisations  :    64
 total energy-change (2. order) :-0.1326694E-02  (-0.1367083E-04)
 number of electron      16.9999998 magnetization       0.9985512
 augmentation part        5.4353591 magnetization       0.7815470

 Broyden mixing:
  rms(total) = 0.36438E-02    rms(broyden)= 0.33772E-02
  rms(prec ) = 0.35844E-02
  weight for this iteration     100.00

 eigenvalues of (default mixing * dielectric matrix)
  average eigenvalue GAMMA=   1.4008
  6.9342  2.9426  2.3715  1.6779  1.6779  0.5350  0.6578  0.6578  1.2612  0.9235
  0.9235  0.7837  0.7837  0.5076  0.7408  0.6198  0.6198  0.5970

 Free energy of the ion-electron system (eV)
  ---------------------------------------------------
  alpha Z        PSCENC =         0.40886037
  Ewald energy   TEWEN  =        57.68220003
  -Hartree energ DENC   =     -1399.60457670
  -exchange      EXHF   =         0.00000000
  -V(xc)+E(xc)   XCENC  =        49.78422669
  PAW double counting   =      1415.26828323    -1482.46261665
  entropy T*S    EENTRO =        -0.04983439
  eigenvalues    EBANDS =      -133.16199018
  atomic energy  EATOM  =      1487.39025330
  Solvation  Ediel_sol  =         0.00000000
  ---------------------------------------------------
  free energy    TOTEN  =        -4.74519430 eV

  energy without entropy =       -4.69535991  energy(sigma->0) =       -4.73273571


--------------------------------------------------------------------------------------------------------




----------------------------------------- Iteration    1(  24)  ---------------------------------------


    POTLOK:  cpu time    0.0647: real time    0.0647
    SETDIJ:  cpu time    0.0034: real time    0.0034
    EDDIAG:  cpu time    0.0129: real time    0.0129
  RMM-DIIS:  cpu time    0.0340: real time    0.0340
    ORTHCH:  cpu time    0.0030: real time    0.0030
       DOS:  cpu time    0.0002: real time    0.0002
    CHARGE:  cpu time    0.0845: real time    0.0845
    MIXING:  cpu time    0.0043: real time    0.0043
    --------------------------------------------
      LOOP:  cpu time    0.2083: real time    0.2148

 eigenvalue-minimisations  :    64
 total energy-change (2. order) :-0.1037325E-02  (-0.6662944E-05)
 number of electron      16.9999999 magnetization       1.0006664
 augmentation part        5.4354358 magnetization       0.7834630

 Broyden mixing:
  rms(total) = 0.15496E-02    rms(broyden)= 0.12282E-02
  rms(prec ) = 0.14464E-02
  weight for this iteration     100.00
  WARNING: grid for Broyden might be to small

 eigenvalues of (default mixing * dielectric matrix)
  average eigenvalue GAMMA=   1.4327
  7.0517  3.1168  2.1105  2.1105  2.0579  0.5350  0.6578  0.6578  1.3767  1.0202
  1.0202  0.8238  0.8238  0.5076  0.7488  0.7488  0.6227  0.6227  0.6088

 Free energy of the ion-electron system (eV)
  ---------------------------------------------------
  alpha Z        PSCENC =         0.40886037
  Ewald energy   TEWEN  =        57.68220003
  -Hartree energ DENC   =     -1399.62008712
  -exchange      EXHF   =         0.00000000
  -V(xc)+E(xc)   XCENC  =        49.78473333
  PAW double counting   =      1415.22506520    -1482.41495304
  entropy T*S    EENTRO =        -0.04992606
  eigenvalues    EBANDS =      -133.15237764
  atomic energy  EATOM  =      1487.39025330
  Solvation  Ediel_sol  =         0.00000000
  ---------------------------------------------------
  free energy    TOTEN  =        -4.74623163 eV

  energy without entropy =       -4.69630557  energy(sigma->0) =       -4.73375011


--------------------------------------------------------------------------------------------------------




----------------------------------------- Iteration    1(  25)  ---------------------------------------


    POTLOK:  cpu time    0.0646: real time    0.0646
    SETDIJ:  cpu time    0.0034: real time    0.0034
    EDDIAG:  cpu time    0.0129: real time    0.0129
  RMM-DIIS:  cpu time    0.0340: real time    0.0340
    ORTHCH:  cpu time    0.0030: real time    0.0030
       DOS:  cpu time    0.0003: real time    0.0003
    CHARGE:  cpu time    0.0838: real time    0.0838
    MIXING:  cpu time    0.0045: real time    0.0045
    --------------------------------------------
      LOOP:  cpu time    0.2078: real time    0.2144

 eigenvalue-minimisations  :    64
 total energy-change (2. order) :-0.5973559E-03  (-0.5917041E-05)
 number of electron      16.9999999 magnetization       1.0010409
 augmentation part        5.4358489 magnetization       0.7834284

 Broyden mixing:
  rms(total) = 0.18013E-02    rms(broyden)= 0.15853E-02
  rms(prec ) = 0.16676E-02
  weight for this iteration     100.00
  WARNING: grid for Broyden might be to small

 eigenvalues of (default mixing * dielectric matrix)
  average eigenvalue GAMMA=   1.4982
  7.3118  3.6778  2.5172  2.5172  0.5350  1.7937  1.6891  0.6578  0.6578  1.1406
  1.0227  1.0227  0.7938  0.7938  0.8405  0.5076  0.6305  0.6305  0.6124  0.6124

 Free energy of the ion-electron system (eV)
  ---------------------------------------------------
  alpha Z        PSCENC =         0.40886037
  Ewald energy   TEWEN  =        57.68220003
  -Hartree energ DENC   =     -1399.62267452
  -exchange      EXHF   =         0.00000000
  -V(xc)+E(xc)   XCENC  =        49.78477999
  PAW double counting   =      1415.14985281    -1482.33118639
  entropy T*S    EENTRO =        -0.05001859
  eigenvalues    EBANDS =      -133.15889598
  atomic energy  EATOM  =      1487.39025330
  Solvation  Ediel_sol  =         0.00000000
  ---------------------------------------------------
  free energy    TOTEN  =        -4.74682899 eV

  energy without entropy =       -4.69681039  energy(sigma->0) =       -4.73432434


--------------------------------------------------------------------------------------------------------




----------------------------------------- Iteration    1(  26)  ---------------------------------------


    POTLOK:  cpu time    0.0646: real time    0.0646
    SETDIJ:  cpu time    0.0035: real time    0.0035
    EDDIAG:  cpu time    0.0129: real time    0.0129
  RMM-DIIS:  cpu time    0.0339: real time    0.0339
    ORTHCH:  cpu time    0.0028: real time    0.0028
       DOS:  cpu time    0.0003: real time    0.0003
    CHARGE:  cpu time    0.0844: real time    0.0844
    MIXING:  cpu time    0.0046: real time    0.0046
    --------------------------------------------
      LOOP:  cpu time    0.2082: real time    0.2146

 eigenvalue-minimisations  :    62
 total energy-change (2. order) :-0.1528561E-03  (-0.2462780E-05)
 number of electron      16.9999999 magnetization       1.0007985
 augmentation part        5.4358131 magnetization       0.7831983

 Broyden mixing:
  rms(total) = 0.93248E-03    rms(broyden)= 0.92595E-03
  rms(prec ) = 0.96902E-03
  weight for this iteration     100.00

 eigenvalues of (default mixing * dielectric matrix)
  average eigenvalue GAMMA=   1.5453
  7.9808  4.1581  2.3791  2.3791  2.3243  1.7335  0.5350  0.6578  0.6578  1.3372
  1.0342  1.0342  0.8206  0.8206  0.8061  0.8061  0.5076  0.6252  0.6252  0.6189
  0.6094

 Free energy of the ion-electron system (eV)
  ---------------------------------------------------
  alpha Z        PSCENC =         0.40886037
  Ewald energy   TEWEN  =        57.68220003
  -Hartree energ DENC   =     -1399.62932224
  -exchange      EXHF   =         0.00000000
  -V(xc)+E(xc)   XCENC  =        49.78513428
  PAW double counting   =      1415.16430445    -1482.34309742
  entropy T*S    EENTRO =        -0.04991458
  eigenvalues    EBANDS =      -133.15540003
  atomic energy  EATOM  =      1487.39025330
  Solvation  Ediel_sol  =         0.00000000
  ---------------------------------------------------
  free energy    TOTEN  =        -4.74698184 eV

  energy without entropy =       -4.69706726  energy(sigma->0) =       -4.73450320


--------------------------------------------------------------------------------------------------------




----------------------------------------- Iteration    1(  27)  ---------------------------------------


    POTLOK:  cpu time    0.0644: real time    0.0644
    SETDIJ:  cpu time    0.0034: real time    0.0035
    EDDIAG:  cpu time    0.0130: real time    0.0130
  RMM-DIIS:  cpu time    0.0281: real time    0.0281
    ORTHCH:  cpu time    0.0028: real time    0.0029
       DOS:  cpu time    0.0002: real time    0.0002
    CHARGE:  cpu time    0.0845: real time    0.0845
    MIXING:  cpu time    0.0049: real time    0.0049
    --------------------------------------------
      LOOP:  cpu time    0.2027: real time    0.2088

 eigenvalue-minimisations  :    51
 total energy-change (2. order) :-0.4042847E-04  (-0.2528138E-06)
 number of electron      16.9999999 magnetization       1.0005754
 augmentation part        5.4356722 magnetization       0.7830185

 Broyden mixing:
  rms(total) = 0.68335E-03    rms(broyden)= 0.66965E-03
  rms(prec ) = 0.70436E-03
  weight for this iteration     100.00

 eigenvalues of (default mixing * dielectric matrix)
  average eigenvalue GAMMA=   1.5556
  8.3967  4.3094  2.8623  2.2024  2.2024  1.6399  1.6399  0.5350  0.6578  0.6578
  1.0383  1.0383  0.9261  0.9261  0.7793  0.7793  0.5076  0.6071  0.6400  0.6400
  0.6193  0.6193

 Free energy of the ion-electron system (eV)
  ---------------------------------------------------
  alpha Z        PSCENC =         0.40886037
  Ewald energy   TEWEN  =        57.68220003
  -Hartree energ DENC   =     -1399.63302873
  -exchange      EXHF   =         0.00000000
  -V(xc)+E(xc)   XCENC  =        49.78532983
  PAW double counting   =      1415.18185051    -1482.36130118
  entropy T*S    EENTRO =        -0.04992249
[...]

 Broyden mixing:
  rms(total) = 0.38592E-04    rms(broyden)= 0.13255E-04
  rms(prec ) = 0.23579E-04
  weight for this iteration     100.00
  WARNING: grid for Broyden might be to small

 eigenvalues of (default mixing * dielectric matrix)
  average eigenvalue GAMMA=   1.0384
  1.4406  2.5431  1.6566  1.3383  1.3383  0.6853  0.6853  1.3276  0.9287  0.9287
  0.6621  0.6209  0.5177  0.4916  0.4107

 Free energy of the ion-electron system (eV)
  ---------------------------------------------------
  alpha Z        PSCENC =         0.40886037
  Ewald energy   TEWEN  =       107.30968814
  -Hartree energ DENC   =     -1445.46183154
  -exchange      EXHF   =         0.00000000
  -V(xc)+E(xc)   XCENC  =        50.02662410
  PAW double counting   =      1504.06733929    -1571.98688852
  entropy T*S    EENTRO =        -0.04705971
  eigenvalues    EBANDS =      -136.72819136
  atomic energy  EATOM  =      1487.39025330
  Solvation  Ediel_sol  =         0.00000000
  ---------------------------------------------------
  free energy    TOTEN  =        -5.02120593 eV

  energy without entropy =       -4.97414621  energy(sigma->0) =       -5.00944100


--------------------------------------------------------------------------------------------------------




----------------------------------------- Iteration    7(  17)  ---------------------------------------


    POTLOK:  cpu time    0.0647: real time    0.0647
    SETDIJ:  cpu time    0.0035: real time    0.0035
    EDDIAG:  cpu time    0.0129: real time    0.0129
  RMM-DIIS:  cpu time    0.0245: real time    0.0245
    ORTHCH:  cpu time    0.0029: real time    0.0029
       DOS:  cpu time    0.0003: real time    0.0003
    CHARGE:  cpu time    0.0844: real time    0.0844
    MIXING:  cpu time    0.0038: real time    0.0038
    --------------------------------------------
      LOOP:  cpu time    0.1984: real time    0.2049

 eigenvalue-minimisations  :    41
 total energy-change (2. order) :-0.1515345E-05  (-0.5314735E-08)
 number of electron      17.0000008 magnetization       0.9999853
 augmentation part        5.3927850 magnetization       0.7452746

 Broyden mixing:
  rms(total) = 0.20085E-04    rms(broyden)= 0.19780E-04
  rms(prec ) = 0.25185E-04
  weight for this iteration     100.00

 eigenvalues of (default mixing * dielectric matrix)
  average eigenvalue GAMMA=   1.0144
  1.4406  2.6545  1.3563  1.3563  1.6439  0.6853  0.6853  1.3482  0.9725  0.9725
  0.6820  0.6345  0.4593  0.4593  0.4652  0.4154

 Free energy of the ion-electron system (eV)
  ---------------------------------------------------
  alpha Z        PSCENC =         0.40886037
  Ewald energy   TEWEN  =       107.30968814
  -Hartree energ DENC   =     -1445.46191416
  -exchange      EXHF   =         0.00000000
  -V(xc)+E(xc)   XCENC  =        50.02662705
  PAW double counting   =      1504.06609854    -1571.98563185
  entropy T*S    EENTRO =        -0.04705783
  eigenvalues    EBANDS =      -136.72813099
  atomic energy  EATOM  =      1487.39025330
  Solvation  Ediel_sol  =         0.00000000
  ---------------------------------------------------
  free energy    TOTEN  =        -5.02120744 eV

  energy without entropy =       -4.97414961  energy(sigma->0) =       -5.00944298


--------------------------------------------------------------------------------------------------------




----------------------------------------- Iteration    7(  18)  ---------------------------------------


    POTLOK:  cpu time    0.0654: real time    0.0654
    SETDIJ:  cpu time    0.0034: real time    0.0034
    EDDIAG:  cpu time    0.0130: real time    0.0130
  RMM-DIIS:  cpu time    0.0212: real time    0.0212
    ORTHCH:  cpu time    0.0030: real time    0.0030
       DOS:  cpu time    0.0002: real time    0.0002
    --------------------------------------------
      LOOP:  cpu time    0.1073: real time    0.1138

 eigenvalue-minimisations  :    29
 total energy-change (2. order) :-0.1885087E-06  (-0.4571968E-09)
 number of electron      17.0000008 magnetization       0.9999853
 augmentation part        5.3927850 magnetization       0.7452746

 Free energy of the ion-electron system (eV)
  ---------------------------------------------------
  alpha Z        PSCENC =         0.40886037
  Ewald energy   TEWEN  =       107.30968814
  -Hartree energ DENC   =     -1445.46192894
  -exchange      EXHF   =         0.00000000
  -V(xc)+E(xc)   XCENC  =        50.02662997
  PAW double counting   =      1504.06402453    -1571.98352861
  entropy T*S    EENTRO =        -0.04705788
  eigenvalues    EBANDS =      -136.72814851
  atomic energy  EATOM  =      1487.39025330
  Solvation  Ediel_sol  =         0.00000000
  ---------------------------------------------------
  free energy    TOTEN  =        -5.02120763 eV

  energy without entropy =       -4.97414975  energy(sigma->0) =       -5.00944316


--------------------------------------------------------------------------------------------------------




 average (electrostatic) potential at core
  the test charge radii are     0.9791  0.9406
  (the norm of the test charge is              1.0000)
       1 -95.4084       2-100.1058
 
 
 
 E-fermi :  -4.8580     XC(G=0):  -0.3420     alpha+bet : -0.1088


 spin component 1

 k-point     1 :       0.0000    0.0000    0.0000
  band No.  band energies     occupation 
      1     -19.5680      1.00000
      2      -9.1181      1.00000
      3      -7.8661      1.00000
      4      -7.8661      1.00000
      5      -5.8712      1.00000
      6      -5.8712      1.00000
      7      -5.7556      1.00000
      8      -5.6141      1.00000
      9      -5.6135      1.00000
     10      -3.7665      0.00000
     11      -0.4971      0.00000
     12      -0.4971      0.00000
     13      -0.0258      0.00000
     14       0.2986      0.00000
     15       0.6505      0.00000
     16       0.6517      0.00000

 spin component 2

 k-point     1 :       0.0000    0.0000    0.0000
  band No.  band energies     occupation 
      1     -19.4588      1.00000
      2      -8.9595      1.00000
      3      -7.5479      1.00000
      4      -7.5479      1.00000
      5      -5.2993      0.99583
      6      -4.9568      0.93542
      7      -4.9566      0.93499
      8      -4.8706      0.56689
      9      -4.8706      0.56689
     10      -3.5252      0.00000
     11      -0.5151      0.00000
     12      -0.5151      0.00000
     13      -0.0318      0.00000
     14       0.2912      0.00000
     15       0.6336      0.00000
     16       0.6398      0.00000


--------------------------------------------------------------------------------------------------------


 soft charge-density along one line, spin component           1
         0         1         2         3         4         5         6         7         8         9
 total charge-density along one line
 
 soft charge-density along one line, spin component           2
         0         1         2         3         4         5         6         7         8         9
 total charge-density along one line
 
 pseudopotential strength for first ion, spin component:           1
 -9.834  -0.000   0.000   0.000  -0.000 -10.129  -0.000   0.000
 -0.000 -10.417   0.000   0.000  -0.000  -0.000 -10.688   0.000
  0.000   0.000 -10.302  -0.000  -0.000   0.000   0.000 -10.579
  0.000   0.000  -0.000 -10.417  -0.000   0.000   0.000  -0.000
 -0.000  -0.000  -0.000  -0.000  -9.835  -0.000  -0.000  -0.000
-10.129  -0.000   0.000   0.000  -0.000 -10.369  -0.000   0.000
 -0.000 -10.688   0.000   0.000  -0.000  -0.000 -10.904   0.000
  0.000   0.000 -10.579  -0.000  -0.000   0.000   0.000 -10.800
  0.000   0.000  -0.000 -10.688  -0.000   0.000   0.000  -0.000
 -0.000  -0.000  -0.000  -0.000 -10.130  -0.000  -0.000  -0.000
 -0.000  -0.000   0.066   0.000  -0.000  -0.000  -0.000   0.067
 -0.000  -0.000   0.114   0.000  -0.000  -0.000  -0.000   0.114
 -0.000  -0.054  -0.000   0.000  -0.000  -0.000  -0.052  -0.000
  0.000  -0.000  -0.056  -0.000  -0.000   0.000  -0.000  -0.053
 -0.000   0.000  -0.000  -0.054   0.000  -0.000   0.000  -0.000
 -0.000  -0.055  -0.000   0.000  -0.000  -0.000  -0.052  -0.000
  0.000  -0.000  -0.056  -0.000  -0.000   0.000  -0.000  -0.053
 -0.000   0.000   0.000  -0.055  -0.000  -0.000   0.000   0.000
 pseudopotential strength for first ion, spin component:           2
 -9.261  -0.000   0.000   0.000  -0.000  -9.583  -0.000   0.000
 -0.000  -9.446   0.000   0.000  -0.000  -0.000  -9.760   0.000
  0.000   0.000  -9.748  -0.000  -0.000   0.000   0.000 -10.051
  0.000   0.000  -0.000  -9.446  -0.000   0.000   0.000  -0.000
 -0.000  -0.000  -0.000  -0.000  -9.261  -0.000  -0.000  -0.000
 -9.583  -0.000   0.000   0.000  -0.000  -9.849  -0.000   0.000
 -0.000  -9.760   0.000   0.000  -0.000  -0.000 -10.018   0.000
  0.000   0.000 -10.051  -0.000  -0.000   0.000   0.000 -10.298
  0.000   0.000  -0.000  -9.760  -0.000   0.000   0.000  -0.000
 -0.000  -0.000  -0.000  -0.000  -9.583  -0.000  -0.000  -0.000
  0.000  -0.000   0.039   0.000  -0.000   0.000  -0.000   0.039
  0.000  -0.000   0.065   0.000  -0.000   0.000  -0.000   0.066
 -0.000  -0.063  -0.000   0.000  -0.000  -0.000  -0.060  -0.000
  0.000  -0.000  -0.065  -0.000  -0.000   0.000  -0.000  -0.062
 -0.000   0.000  -0.000  -0.063  -0.000  -0.000   0.000  -0.000
 -0.000  -0.067  -0.000   0.000  -0.000  -0.000  -0.064  -0.000
  0.000  -0.000  -0.070  -0.000  -0.000   0.000  -0.000  -0.066
 -0.000   0.000   0.000  -0.067  -0.000  -0.000   0.000   0.000
 total augmentation occupancy for first ion, spin component:           1
  2.191   0.000   0.000   0.000   0.000  -0.134   0.000   0.000   0.000   0.000   0.000   0.000   0.000   0.000   0.000   0.000
  0.000   2.584   0.000   0.000   0.000   0.000  -0.927   0.000   0.000   0.000  -0.000  -0.000  -0.146   0.000   0.000  -0.043
  0.000   0.000   4.152   0.000   0.000   0.000   0.000  -2.752  -0.000   0.000  -2.529   0.351   0.000  -0.694   0.000   0.000
 -0.000   0.000   0.000   2.584   0.000   0.000   0.000  -0.000  -0.927   0.000   0.000   0.000   0.000   0.000  -0.146   0.000
  0.000   0.000   0.000   0.000   2.189   0.000  -0.000   0.000   0.000  -0.133   0.000   0.000   0.000   0.000   0.000   0.000
 -0.134  -0.000   0.000   0.000   0.000   0.016   0.000   0.000   0.000   0.000   0.000   0.000   0.000   0.000   0.000  -0.000
  0.000  -0.927   0.000   0.000  -0.000   0.000   0.903   0.000   0.000   0.000   0.000   0.000   0.190   0.000   0.000  -0.016
  0.000   0.000  -2.752   0.000   0.000   0.000  -0.000   3.161   0.000   0.000   2.104  -0.347   0.000   0.888  -0.000  -0.000
  0.000   0.000   0.000  -0.927   0.000   0.000   0.000  -0.000   0.903   0.000  -0.000  -0.000  -0.000   0.000   0.190   0.000
  0.000   0.000   0.000   0.000  -0.133   0.000   0.000   0.000   0.000   0.016   0.000   0.000   0.000   0.000   0.000   0.000
  0.000   0.000  -2.529   0.000   0.000   0.000   0.000   2.104   0.000   0.000   1.741  -0.237   0.000   0.558  -0.000   0.000
  0.000   0.000   0.351   0.000   0.000   0.000   0.000  -0.347  -0.000   0.000  -0.237   0.046   0.000  -0.097   0.000   0.000
  0.000  -0.146   0.000   0.000   0.000   0.000   0.190   0.000  -0.000   0.000   0.000  -0.000   0.042  -0.000   0.000  -0.005
  0.000   0.000  -0.694  -0.000   0.000   0.000   0.000   0.888   0.000   0.000   0.558  -0.097  -0.000   0.254   0.000   0.000
  0.000   0.000  -0.000  -0.146   0.000   0.000   0.000  -0.000   0.190   0.000  -0.000   0.000   0.000   0.000   0.042   0.000
  0.000  -0.043   0.000   0.000   0.000   0.000  -0.016  -0.000   0.000   0.000   0.000   0.000  -0.005   0.000   0.000   0.002
  0.000   0.000   0.104   0.000   0.000   0.000   0.000  -0.183  -0.000   0.000  -0.094   0.022   0.000  -0.055  -0.000   0.000
  0.000   0.000  -0.000  -0.043   0.000  -0.000   0.000   0.000  -0.016  -0.000  -0.000   0.000   0.000  -0.000  -0.005   0.000
 total augmentation occupancy for first ion, spin component:           2
  0.353  -0.000   0.000   0.000   0.000  -0.149   0.000   0.000  -0.000   0.000   0.000   0.000   0.000   0.000  -0.000   0.000
  0.000   0.933   0.000   0.000   0.000   0.000  -0.301   0.000   0.000   0.000   0.000   0.000  -0.012   0.000   0.000  -0.023
  0.000   0.000   0.446  -0.000   0.000   0.000   0.000  -0.205  -0.000   0.000  -0.006  -0.015   0.000  -0.013   0.000   0.000
 -0.000   0.000   0.000   0.933   0.000   0.000   0.000  -0.000  -0.301   0.000   0.000  -0.000   0.000  -0.000  -0.012   0.000
  0.000   0.000   0.000   0.000   0.353   0.000   0.000   0.000   0.000  -0.149   0.000   0.000   0.000   0.000   0.000   0.000
 -0.149  -0.000   0.000   0.000   0.000   0.016  -0.000   0.000   0.000   0.000   0.000   0.000   0.000   0.000  -0.000   0.000
  0.000  -0.301   0.000   0.000   0.000  -0.000   0.050   0.000   0.000   0.000   0.000   0.000  -0.000   0.000  -0.000   0.010
  0.000   0.000  -0.205  -0.000   0.000   0.000   0.000   0.023  -0.000   0.000   0.032   0.027   0.000  -0.009   0.000   0.000
  0.000   0.000   0.000  -0.301   0.000   0.000   0.000  -0.000   0.050   0.000   0.000   0.000   0.000   0.000  -0.000   0.000
  0.000   0.000   0.000   0.000  -0.149   0.000   0.000   0.000   0.000   0.016   0.000   0.000   0.000   0.000   0.000   0.000
  0.000   0.000  -0.006  -0.000   0.000   0.000   0.000   0.032   0.000   0.000  -0.111   0.026   0.000  -0.005   0.000   0.000
  0.000   0.000  -0.015  -0.000   0.000   0.000   0.000   0.027   0.000   0.000   0.026  -0.006   0.000   0.009   0.000   0.000
  0.000  -0.012   0.000   0.000   0.000   0.000  -0.000   0.000   0.000   0.000  -0.000   0.000  -0.000   0.000   0.000   0.001
  0.000   0.000  -0.013  -0.000   0.000   0.000   0.000  -0.009   0.000   0.000  -0.005   0.009   0.000  -0.004   0.000   0.000
  0.000   0.000  -0.000  -0.012   0.000  -0.000  -0.000   0.000  -0.000   0.000   0.000   0.000   0.000   0.000  -0.000   0.000
  0.000  -0.023   0.000   0.000   0.000   0.000   0.010   0.000   0.000   0.000   0.000   0.000   0.001   0.000   0.000   0.000
  0.000   0.000  -0.016   0.000   0.000   0.000   0.000   0.010   0.000   0.000   0.006  -0.002   0.000   0.002   0.000   0.000
  0.000   0.000   0.000  -0.023   0.000   0.000   0.000   0.000   0.010   0.000  -0.000  -0.000   0.000   0.000   0.001   0.000


------------------------ aborting loop because EDIFF is reached ----------------------------------------


    CHARGE:  cpu time    0.0836: real time    0.0836
    FORLOC:  cpu time    0.0013: real time    0.0013
    FORNL :  cpu time    0.0114: real time    0.0114
    STRESS:  cpu time    0.0325: real time    0.0325
    FORCOR:  cpu time    0.0634: real time    0.0634
    FORHAR:  cpu time    0.0080: real time    0.0080
    MIXING:  cpu time    0.0039: real time    0.0039
    OFIELD:  cpu time    0.0000: real time    0.0000

  FORCE on cell =-STRESS in cart. coord.  units (eV):
  Direction    XX          YY          ZZ          XY          YZ          ZX
  --------------------------------------------------------------------------------------
  Alpha Z     0.40886     0.40886     0.40886
  Ewald    -132.43357  -132.43357   372.17676     0.00000    -0.00000    -0.00000
  Hartree   382.44560   382.44560   680.57118    -0.00000    -0.00000    -0.00000
  E(xc)     -80.94067   -80.94067   -80.09255     0.00000    -0.00000    -0.00000
  Local    -600.27483  -600.27483 -1368.15355     0.00000    -0.00000    -0.00000
  n-local    69.63541    69.63541    65.57344     0.00000     0.00000    -0.00000
  augment   161.42451   161.42451   150.03902    -0.00000     0.00000    -0.00000
  Kinetic   199.69659   199.69659   179.41307    -0.00000    -0.00000     0.00000
  Fock        0.00000     0.00000     0.00000     0.00000     0.00000     0.00000
  -------------------------------------------------------------------------------------
  Total      -0.03810    -0.03810    -0.06377     0.00000     0.00000     0.00000
  in kB      -0.01809    -0.01809    -0.03027     0.00000     0.00000     0.00000
  external pressure =       -0.02 kB  Pullay stress =        0.00 kB


 VOLUME and BASIS-vectors are now :
 -----------------------------------------------------------------------------
  energy-cutoff  :      450.00
  volume of cell :     3375.00
      direct lattice vectors                 reciprocal lattice vectors
    15.000000000  0.000000000  0.000000000     0.066666667  0.000000000  0.000000000
     0.000000000 15.000000000  0.000000000     0.000000000  0.066666667  0.000000000
     0.000000000  0.000000000 15.000000000     0.000000000  0.000000000  0.066666667

  length of vectors
    15.000000000 15.000000000 15.000000000     0.066666667  0.066666667  0.066666667


 FORCES acting on ions
    electron-ion (+dipol)            ewald-force                    non-local-force                 convergence-correction
 -----------------------------------------------------------------------------------------------
   -.144E-12 0.105E-11 0.258E+03   -.107E-16 0.517E-16 -.244E+03   0.258E-25 -.258E-25 -.145E+02   0.612E-13 0.139E-12 -.237E-03
   0.430E-12 -.746E-12 -.240E+03   -.313E-16 -.100E-15 0.244E+03   0.000E+00 0.000E+00 -.398E+01   0.132E-13 0.111E-12 -.370E-03
 -----------------------------------------------------------------------------------------------
   0.286E-12 0.305E-12 0.184E+02   -.420E-16 -.485E-16 0.000E+00   0.258E-25 -.258E-25 -.184E+02   0.744E-13 0.251E-12 -.607E-03
 
 
 POSITION                                       TOTAL-FORCE (eV/Angst)
 -----------------------------------------------------------------------------------
      7.50000      7.50000      7.61350        -0.000000      0.000000      0.002233
      7.50000      7.50000      9.63650         0.000000     -0.000000     -0.002233
 -----------------------------------------------------------------------------------
    total drift:                                0.000000      0.000000     -0.007657


--------------------------------------------------------------------------------------------------------



  FREE ENERGIE OF THE ION-ELECTRON SYSTEM (eV)
  ---------------------------------------------------
  free  energy   TOTEN  =        -5.02120763 eV

  energy  without entropy=       -4.97414975  energy(sigma->0) =       -5.00944316
 
 d Force = 0.2484689E-04[-0.439E-05, 0.541E-04]  d Energy = 0.2997475E-04-0.513E-05
 d Force = 0.4788856E+00[ 0.478E+00, 0.479E+00]  d Ewald  = 0.4788854E+00 0.229E-06


--------------------------------------------------------------------------------------------------------


    POTLOK:  cpu time    0.0699: real time    0.0699


--------------------------------------------------------------------------------------------------------




--------------------------------------------------------------------------------------------------------


  
 reached required accuracy - stopping structural energy minimisation
     LOOP+:  cpu time    3.9202: real time    4.0420
    4ORBIT:  cpu time    0.0002: real time    0.0003

 total amount of memory used by VASP on root node    39137. kBytes
========================================================================

   base      :      30000. kBytes
   nonlr-proj:         52. kBytes
   fftplans  :       2467. kBytes
   grid      :       6195. kBytes
   one-center:         31. kBytes
   wavefun   :        392. kBytes
 
  
  
 General timing and accounting informations for this job:
 ========================================================
  
                  Total CPU time used (sec):       38.944
                            User time (sec):       37.822
                          System time (sec):        1.123
                         Elapsed time (sec):       40.121
  
                   Maximum memory used (kb):      127708.
                   Average memory used (kb):           0.
  
                          Minor page faults:        38763
                          Major page faults:            0
                 Voluntary context switches:         3820
