 vasp.5.4.4.18Apr17-6-g9f103f2a35 (build Jan 21 2021 13:12:21) complex          
  
 executed on             LinuxIFC date 2021.12.20  22:18:58
 running on   16 total cores
 distrk:  each k-point on   16 cores,    1 groups
 distr:  one band on NCORES_PER_BAND=   1 cores,   16 groups


--------------------------------------------------------------------------------------------------------


 INCAR:
 POTCAR:    PAW_PBE W 08Apr2002                   
 POTCAR:    PAW_PBE Cl 17Jan2003                  

 ----------------------------------------------------------------------------- 
|                                                                             |
|           W    W    AA    RRRRR   N    N  II  N    N   GGGG   !!!           |
|           W    W   A  A   R    R  NN   N  II  NN   N  G    G  !!!           |
|           W    W  A    A  R    R  N N  N  II  N N  N  G       !!!           |
|           W WW W  AAAAAA  RRRRR   N  N N  II  N  N N  G  GGG   !            |
|           WW  WW  A    A  R   R   N   NN  II  N   NN  G    G                |
|           W    W  A    A  R    R  N    N  II  N    N   GGGG   !!!           |
|                                                                             |
|      For optimal performance we recommend to set                            |
|        NCORE= 4 - approx SQRT( number of cores)                             |
|      NCORE specifies how many cores store one orbital (NPAR=cpu/NCORE).     |
|      This setting can  greatly improve the performance of VASP for DFT.     |
|      The default,   NCORE=1            might be grossly inefficient         |
|      on modern multi-core architectures or massively parallel machines.     |
|      Do your own testing !!!!                                               |
|      Unfortunately you need to use the default for GW and RPA calculations. |
|      (for HF NCORE is supported but not extensively tested yet)             |
|                                                                             |
 ----------------------------------------------------------------------------- 

 POTCAR:    PAW_PBE W 08Apr2002                   
   VRHFIN =W : 6s5d                                                             
   LEXCH  = PE                                                                  
   EATOM  =   204.6103 eV,   15.0384 Ry                                         
                                                                                
   TITEL  = PAW_PBE W 08Apr2002                                                 
   LULTRA =        F    use ultrasoft PP ?                                      
   IUNSCR =        1    unscreen: 0-lin 1-nonlin 2-no                           
   RPACOR =    2.330    partial core radius                                     
   POMASS =  183.850; ZVAL   =    6.000    mass and valenz                      
   RCORE  =    2.750    outmost cutoff radius                                   
   RWIGS  =    2.750; RWIGS  =    1.455    wigner-seitz radius (au A)           
   ENMAX  =  223.057; ENMIN  =  167.293 eV                                      
   RCLOC  =    2.147    cutoff for local pot                                    
   LCOR   =        T    correct aug charges                                     
   LPAW   =        T    paw PP                                                  
   EAUG   =  373.438                                                            
   DEXC   =    0.000                                                            
   RMAX   =    2.801    core radius for proj-oper                               
   RAUG   =    1.300    factor for augmentation sphere                          
   RDEP   =    2.886    radius for radial grids                                 
   RDEPT  =    2.230    core radius for aug-charge                              
                                                                                
   Atomic configuration                                                         
   16 entries                                                                   
     n  l   j            E        occ.                                          
     1  0  0.50    -69465.5836   2.0000                                         
     2  0  0.50    -11986.2642   2.0000                                         
     2  1  1.50    -10479.8616   6.0000                                         
     3  0  0.50     -2759.0758   2.0000                                         
     3  1  1.50     -2313.1857   6.0000                                         
     3  2  2.50     -1801.1185  10.0000                                         
     4  0  0.50      -567.6791   2.0000                                         
     4  1  1.50      -421.4694   6.0000                                         
     4  2  2.50      -236.3473  10.0000                                         
     4  3  3.50       -31.2666  14.0000                                         
     5  0  0.50       -77.1085   2.0000                                         
     5  1  1.50       -41.3856   6.0000                                         
     5  2  2.50        -3.3185   5.0000                                         
     6  0  0.50        -5.1438   1.0000                                         
     6  1  0.50        -3.8096   0.0000                                         
     5  3  2.50        -1.3606   0.0000                                         
   Description                                                                  
     l       E           TYP  RCUT    TYP  RCUT                                 
     2     -3.3185288     23  2.500                                             
     2     -1.5965414     23  2.500                                             
     0     -5.1438054     23  2.500                                             
     0      4.9117504     23  2.500                                             
     1      2.7211652     23  2.750                                             
     1     27.2116520     23  2.750                                             
  local pseudopotential read in
  partial core-charges read in
  partial kinetic energy density read in
  atomic valenz-charges read in
  non local Contribution for L=           2  read in
    real space projection operators read in
  non local Contribution for L=           2  read in
    real space projection operators read in
  non local Contribution for L=           0  read in
    real space projection operators read in
  non local Contribution for L=           0  read in
    real space projection operators read in
  non local Contribution for L=           1  read in
    real space projection operators read in
  non local Contribution for L=           1  read in
    real space projection operators read in
    PAW grid and wavefunctions read in
 
   number of l-projection  operators is LMAX  =           6
   number of lm-projection operators is LMMAX =          18
 
 POTCAR:    PAW_PBE Cl 17Jan2003                  
   VRHFIN =Cl: s2p5                                                             
   LEXCH  = PE                                                                  
   EATOM  =   409.7259 eV,   30.1140 Ry                                         
                                                                                
   TITEL  = PAW_PBE Cl 17Jan2003                                                
   LULTRA =        F    use ultrasoft PP ?                                      
   IUNSCR =        1    unscreen: 0-lin 1-nonlin 2-no                           
   RPACOR =    1.500    partial core radius                                     
   POMASS =   35.453; ZVAL   =    7.000    mass and valenz                      
   RCORE  =    1.900    outmost cutoff radius                                   
   RWIGS  =    2.100; RWIGS  =    1.111    wigner-seitz radius (au A)           
   ENMAX  =  280.000; ENMIN  =  196.854 eV                                      
   ICORE  =        2    local potential                                         
   LCOR   =        T    correct aug charges                                     
   LPAW   =        T    paw PP                                                  
   EAUG   =  356.192                                                            
   DEXC   =     .000                                                            
   RMAX   =    2.846    core radius for proj-oper                               
   RAUG   =    1.300    factor for augmentation sphere                          
   RDEP   =    2.020    radius for radial grids                                 
   QCUT   =   -4.392; QGAM   =    8.784    optimization parameters              
                                                                                
   Description                                                                  
     l     E      TYP  RCUT    TYP  RCUT                                        
     0   .000     23  1.900                                                     
     0   .000     23  1.900                                                     
     1   .000     23  1.900                                                     
     1   .000     23  1.900                                                     
     2   .000     23  1.900                                                     
  local pseudopotential read in
  partial core-charges read in
  atomic valenz-charges read in
  non local Contribution for L=           0  read in
    real space projection operators read in
  non local Contribution for L=           0  read in
    real space projection operators read in
  non local Contribution for L=           1  read in
    real space projection operators read in
  non local Contribution for L=           1  read in
    real space projection operators read in
    PAW grid and wavefunctions read in
 
   number of l-projection  operators is LMAX  =           4
   number of lm-projection operators is LMMAX =           8
 
  PAW_PBE W 08Apr2002                   :
 energy of atom  1       EATOM= -204.6103
 kinetic energy error for atom=    0.0205 (will be added to EATOM!!)
  PAW_PBE Cl 17Jan2003                  :
 energy of atom  2       EATOM= -409.7259
 kinetic energy error for atom=    0.0240 (will be added to EATOM!!)
 
 
 POSCAR: O dimer in a box                        
  positions in direct lattice
  velocities in cartesian coordinates
  No initial velocities read in
 exchange correlation table for  LEXCH =        8
   RHO(1)=    0.500       N(1)  =     2000
   RHO(2)=  100.500       N(2)  =     4000
 


--------------------------------------------------------------------------------------------------------


 ion  position               nearest neighbor table
   1  0.000  0.073  0.114-   3 2.27   2 2.27
   2  0.000  0.890  0.067-   1 2.27
   3  0.000  0.256  0.069-   1 2.27
   4  0.256  0.000  0.069-
 
  LATTYP: Found a simple cubic cell.
 ALAT       =    12.0000000000
  
  Lattice vectors:
  
 A1 = (  12.0000000000,   0.0000000000,   0.0000000000)
 A2 = (   0.0000000000,  12.0000000000,   0.0000000000)
 A3 = (   0.0000000000,   0.0000000000,  12.0000000000)


Analysis of symmetry for initial positions (statically):
=====================================================================
 Subroutine PRICEL returns:
 Original cell was already a primitive cell.
 

 Routine SETGRP: Setting up the symmetry group for a 
 simple cubic supercell.


 Subroutine GETGRP returns: Found  1 space group operations
 (whereof  1 operations were pure point group operations)
 out of a pool of 48 trial point group operations.


The static configuration has the point symmetry C_1 .


Analysis of symmetry for dynamics (positions and initial velocities):
=====================================================================
 Subroutine PRICEL returns:
 Original cell was already a primitive cell.
 

 Routine SETGRP: Setting up the symmetry group for a 
 simple cubic supercell.


 Subroutine GETGRP returns: Found  1 space group operations
 (whereof  1 operations were pure point group operations)
 out of a pool of 48 trial point group operations.


The dynamic configuration has the point symmetry C_1 .


Analysis of constrained symmetry for selective dynamics:
=====================================================================
 Subroutine PRICEL returns:
 Original cell was already a primitive cell.
 

 Routine SETGRP: Setting up the symmetry group for a 
 simple cubic supercell.


 Subroutine GETGRP returns: Found  1 space group operations
 (whereof  1 operations were pure point group operations)
 out of a pool of 48 trial point group operations.


The constrained configuration has the point symmetry C_1 .


Analysis of structural, dynamic, and magnetic symmetry:
=====================================================================
 Subroutine PRICEL returns:
 Original cell was already a primitive cell.
 

 Routine SETGRP: Setting up the symmetry group for a 
 simple cubic supercell.


 Subroutine GETGRP returns: Found  1 space group operations
 (whereof  1 operations were pure point group operations)
 out of a pool of 48 trial point group operations.


The magnetic configuration has the point symmetry C_1 .


 Subroutine INISYM returns: Found  1 space group operations
 (whereof  1 operations are pure point group operations),
 and found     1 'primitive' translations

 
 
 KPOINTS: Gamma-point only                        

Automatic generation of k-mesh.
Space group operators:
 irot       det(A)        alpha          n_x          n_y          n_z        tau_x        tau_y        tau_z
    1     1.000000     0.000000     1.000000     0.000000     0.000000     0.000000     0.000000     0.000000
 
 Subroutine IBZKPT returns following result:
 ===========================================
 
 Found     32 irreducible k-points:
 
 Following reciprocal coordinates:
            Coordinates               Weight
  0.125000  0.125000  0.125000      2.000000
  0.375000  0.125000  0.125000      2.000000
 -0.375000  0.125000  0.125000      2.000000
 -0.125000  0.125000  0.125000      2.000000
  0.125000  0.375000  0.125000      2.000000
  0.375000  0.375000  0.125000      2.000000
 -0.375000  0.375000  0.125000      2.000000
 -0.125000  0.375000  0.125000      2.000000
  0.125000 -0.375000  0.125000      2.000000
  0.375000 -0.375000  0.125000      2.000000
 -0.375000 -0.375000  0.125000      2.000000
 -0.125000 -0.375000  0.125000      2.000000
  0.125000 -0.125000  0.125000      2.000000
  0.375000 -0.125000  0.125000      2.000000
 -0.375000 -0.125000  0.125000      2.000000
 -0.125000 -0.125000  0.125000      2.000000
  0.125000  0.125000  0.375000      2.000000
  0.375000  0.125000  0.375000      2.000000
 -0.375000  0.125000  0.375000      2.000000
 -0.125000  0.125000  0.375000      2.000000
  0.125000  0.375000  0.375000      2.000000
  0.375000  0.375000  0.375000      2.000000
 -0.375000  0.375000  0.375000      2.000000
 -0.125000  0.375000  0.375000      2.000000
  0.125000 -0.375000  0.375000      2.000000
  0.375000 -0.375000  0.375000      2.000000
 -0.375000 -0.375000  0.375000      2.000000
 -0.125000 -0.375000  0.375000      2.000000
  0.125000 -0.125000  0.375000      2.000000
  0.375000 -0.125000  0.375000      2.000000
 -0.375000 -0.125000  0.375000      2.000000
 -0.125000 -0.125000  0.375000      2.000000
 
 Following cartesian coordinates:
            Coordinates               Weight
  0.010417  0.010417  0.010417      2.000000
  0.031250  0.010417  0.010417      2.000000
 -0.031250  0.010417  0.010417      2.000000
 -0.010417  0.010417  0.010417      2.000000
  0.010417  0.031250  0.010417      2.000000
  0.031250  0.031250  0.010417      2.000000
 -0.031250  0.031250  0.010417      2.000000
 -0.010417  0.031250  0.010417      2.000000
  0.010417 -0.031250  0.010417      2.000000
  0.031250 -0.031250  0.010417      2.000000
 -0.031250 -0.031250  0.010417      2.000000
 -0.010417 -0.031250  0.010417      2.000000
  0.010417 -0.010417  0.010417      2.000000
  0.031250 -0.010417  0.010417      2.000000
 -0.031250 -0.010417  0.010417      2.000000
 -0.010417 -0.010417  0.010417      2.000000
  0.010417  0.010417  0.031250      2.000000
  0.031250  0.010417  0.031250      2.000000
 -0.031250  0.010417  0.031250      2.000000
 -0.010417  0.010417  0.031250      2.000000
  0.010417  0.031250  0.031250      2.000000
  0.031250  0.031250  0.031250      2.000000
 -0.031250  0.031250  0.031250      2.000000
 -0.010417  0.031250  0.031250      2.000000
  0.010417 -0.031250  0.031250      2.000000
  0.031250 -0.031250  0.031250      2.000000
 -0.031250 -0.031250  0.031250      2.000000
 -0.010417 -0.031250  0.031250      2.000000
  0.010417 -0.010417  0.031250      2.000000
  0.031250 -0.010417  0.031250      2.000000
 -0.031250 -0.010417  0.031250      2.000000
 -0.010417 -0.010417  0.031250      2.000000
 


--------------------------------------------------------------------------------------------------------




 Dimension of arrays:
   k-points           NKPTS =     32   k-points in BZ     NKDIM =     32   number of bands    NBANDS=     32
   number of dos      NEDOS =    301   number of ions     NIONS =      4
   non local maximal  LDIM  =      6   non local SUM 2l+1 LMDIM =     18
   total plane-waves  NPLWV = 125000
   max r-space proj   IRMAX =      1   max aug-charges    IRDMAX=   4328
   dimension x,y,z NGX =    50 NGY =   50 NGZ =   50
   dimension x,y,z NGXF=   100 NGYF=  100 NGZF=  100
   support grid    NGXF=   100 NGYF=  100 NGZF=  100
   ions per type =               1   3
   NGX,Y,Z   is equivalent  to a cutoff of   6.93,  6.93,  6.93 a.u.
   NGXF,Y,Z  is equivalent  to a cutoff of  13.85, 13.85, 13.85 a.u.

 SYSTEM =  Te                                      
 POSCAR =  O dimer in a box                        

 Startparameter for this run:
   NWRITE =      2    write-flag & timer
   PREC   = normal    normal or accurate (medium, high low for compatibility)
   ISTART =      0    job   : 0-new  1-cont  2-samecut
   ICHARG =      2    charge: 1-file 2-atom 10-const
   ISPIN  =      2    spin polarized calculation?
   LNONCOLLINEAR =      F non collinear calculations
   LSORBIT =      F    spin-orbit coupling
   INIWAV =      1    electr: 0-lowe 1-rand  2-diag
   LASPH  =      F    aspherical Exc in radial PAW
   METAGGA=      F    non-selfconsistent MetaGGA calc.

 Electronic Relaxation 1
   ENCUT  =  280.0 eV  20.58 Ry    4.54 a.u.  16.37 16.37 16.37*2*pi/ulx,y,z
   ENINI  =  280.0     initial cutoff
   ENAUG  =  373.4 eV  augmentation charge cutoff
   NELM   =     60;   NELMIN=  2; NELMDL= -5     # of ELM steps 
   EDIFF  = 0.1E-03   stopping-criterion for ELM
   LREAL  =      F    real-space projection
   NLSPLINE    = F    spline interpolate recip. space projectors
   LCOMPAT=      F    compatible to vasp.4.4
   GGA_COMPAT  = T    GGA compatible to vasp.4.4-vasp.4.6
   LMAXPAW     = -100 max onsite density
   LMAXMIX     =    2 max onsite mixed and CHGCAR
   VOSKOWN=      0    Vosko Wilk Nusair interpolation
   ROPT   =    0.00000   0.00000
 Ionic relaxation
   EDIFFG = 0.1E-02   stopping-criterion for IOM
   NSW    =    100    number of steps for IOM
   NBLOCK =      1;   KBLOCK =    100    inner block; outer block 
   IBRION =      2    ionic relax: 0-MD 1-quasi-New 2-CG
   NFREE  =      1    steps in history (QN), initial steepest desc. (CG)
   ISIF   =      2    stress and relaxation
   IWAVPR =     11    prediction:  0-non 1-charg 2-wave 3-comb
   ISYM   =      2    0-nonsym 1-usesym 2-fastsym
   LCORR  =      T    Harris-Foulkes like correction to forces

   POTIM  = 0.5000    time-step for ionic-motion
   TEIN   =    0.0    initial temperature
   TEBEG  =    0.0;   TEEND  =   0.0 temperature during run
   SMASS  =  -3.00    Nose mass-parameter (am)
   estimated Nose-frequenzy (Omega)   =  0.10E-29 period in steps =****** mass=  -0.329E-26a.u.
   SCALEE = 1.0000    scale energy and forces
   NPACO  =    256;   APACO  = 16.0  distance and # of slots for P.C.
   PSTRESS=    0.0 pullay stress

  Mass of Ions in am
   POMASS = 183.85 35.45
  Ionic Valenz
   ZVAL   =   6.00  7.00
  Atomic Wigner-Seitz radii
   RWIGS  =  -1.00 -1.00
  virtual crystal weights 
   VCA    =   1.00  1.00
   NELECT =      27.0000    total number of electrons
   NUPDOWN=      -1.0000    fix difference up-down

 DOS related values:
   EMIN   =  10.00;   EMAX   =-10.00  energy-range for DOS
   EFERMI =   0.00
   ISMEAR =     0;   SIGMA  =   0.20  broadening in eV -4-tet -1-fermi 0-gaus

 Electronic relaxation 2 (details)
   IALGO  =     38    algorithm
   LDIAG  =      T    sub-space diagonalisation (order eigenvalues)
   LSUBROT=      F    optimize rotation matrix (better conditioning)
   TURBO    =      0    0=normal 1=particle mesh
   IRESTART =      0    0=no restart 2=restart with 2 vectors
   NREBOOT  =      0    no. of reboots
   NMIN     =      0    reboot dimension
   EREF     =   0.00    reference energy to select bands
   IMIX   =      4    mixing-type and parameters
     AMIX     =   0.40;   BMIX     =  1.00
     AMIX_MAG =   1.60;   BMIX_MAG =  1.00
     AMIN     =   0.10
     WC   =   100.;   INIMIX=   1;  MIXPRE=   1;  MAXMIX= -45

 Intra band minimization:
   WEIMIN = 0.0010     energy-eigenvalue tresh-hold
   EBREAK =  0.78E-06  absolut break condition
   DEPER  =   0.30     relativ break condition  

   TIME   =   0.40     timestep for ELM

  volume/ion in A,a.u.               =     432.00      2915.28
  Fermi-wavevector in a.u.,A,eV,Ry     =   0.409275  0.773417  2.279054  0.167506
  Thomas-Fermi vector in A             =   1.364147
 
 Write flags
   LWAVE        =      T    write WAVECAR
   LDOWNSAMPLE  =      F    k-point downsampling of WAVECAR
   LCHARG       =      T    write CHGCAR
   LVTOT        =      F    write LOCPOT, total local potential
   LVHAR        =      F    write LOCPOT, Hartree potential only
   LELF         =      F    write electronic localiz. function (ELF)
   LORBIT       =      0    0 simple, 1 ext, 2 COOP (PROOUT), +10 PAW based schemes


 Dipole corrections
   LMONO  =      F    monopole corrections only (constant potential shift)
   LDIPOL =      F    correct potential (dipole corrections)
   IDIPOL =      0    1-x, 2-y, 3-z, 4-all directions 
   EPSILON=  1.0000000 bulk dielectric constant

 Exchange correlation treatment:
   GGA     =    --    GGA type
   LEXCH   =     8    internal setting for exchange type
   VOSKOWN=      0    Vosko Wilk Nusair interpolation
   LHFCALC =     F    Hartree Fock is set to
   LHFONE  =     F    Hartree Fock one center treatment
   AEXX    =    0.0000 exact exchange contribution

 Linear response parameters
   LEPSILON=     F    determine dielectric tensor
   LRPA    =     F    only Hartree local field effects (RPA)
   LNABLA  =     F    use nabla operator in PAW spheres
   LVEL    =     F    velocity operator in full k-point grid
   LINTERFAST=   F  fast interpolation
   KINTER  =     0    interpolate to denser k-point grid
   CSHIFT  =0.1000    complex shift for real part using Kramers Kronig
   OMEGAMAX=  -1.0    maximum frequency
   DEG_THRESHOLD= 0.2000000E-02 threshold for treating states as degnerate
   RTIME   =   -0.100 relaxation time in fs
  (WPLASMAI=    0.000 imaginary part of plasma frequency in eV, 0.658/RTIME)
   DFIELD  = 0.0000000 0.0000000 0.0000000 field for delta impulse in time
 
 Orbital magnetization related:
   ORBITALMAG=     F  switch on orbital magnetization
   LCHIMAG   =     F  perturbation theory with respect to B field
   DQ        =  0.001000  dq finite difference perturbation B field
   LLRAUG    =     F  two centre corrections for induced B field



--------------------------------------------------------------------------------------------------------


 conjugate gradient relaxation of ions
   using selective dynamics as specified on POSCAR
 charge density and potential will be updated during run
 spin polarized calculation
 Variant of blocked Davidson
 Davidson routine will perform the subspace rotation
 perform sub-space diagonalisation
    after iterative eigenvector-optimisation
 modified Broyden-mixing scheme, WC =      100.0
 initial mixing is a Kerker type mixing with AMIX =  0.4000 and BMIX =      1.0000
 Hartree-type preconditioning will be used
 using additional bands           18
 reciprocal scheme for non local part
 use partial core corrections
 calculate Harris-corrections to forces 
   (improved forces if not selfconsistent)
 use gradient corrections 
 use of overlap-Matrix (Vanderbilt PP)
 Gauss-broadening in eV      SIGMA  =   0.20


--------------------------------------------------------------------------------------------------------


  energy-cutoff  :      280.00
  volume of cell :     1728.00
      direct lattice vectors                 reciprocal lattice vectors
    12.000000000  0.000000000  0.000000000     0.083333333  0.000000000  0.000000000
     0.000000000 12.000000000  0.000000000     0.000000000  0.083333333  0.000000000
     0.000000000  0.000000000 12.000000000     0.000000000  0.000000000  0.083333333

  length of vectors
    12.000000000 12.000000000 12.000000000     0.083333333  0.083333333  0.083333333


 
 k-points in units of 2pi/SCALE and weight: Gamma-point only                        
   0.01041667  0.01041667  0.01041667       0.031
   0.03125000  0.01041667  0.01041667       0.031
  -0.03125000  0.01041667  0.01041667       0.031
  -0.01041667  0.01041667  0.01041667       0.031
   0.01041667  0.03125000  0.01041667       0.031
   0.03125000  0.03125000  0.01041667       0.031
  -0.03125000  0.03125000  0.01041667       0.031
  -0.01041667  0.03125000  0.01041667       0.031
   0.01041667 -0.03125000  0.01041667       0.031
   0.03125000 -0.03125000  0.01041667       0.031
  -0.03125000 -0.03125000  0.01041667       0.031
  -0.01041667 -0.03125000  0.01041667       0.031
   0.01041667 -0.01041667  0.01041667       0.031
   0.03125000 -0.01041667  0.01041667       0.031
  -0.03125000 -0.01041667  0.01041667       0.031
  -0.01041667 -0.01041667  0.01041667       0.031
   0.01041667  0.01041667  0.03125000       0.031
   0.03125000  0.01041667  0.03125000       0.031
  -0.03125000  0.01041667  0.03125000       0.031
  -0.01041667  0.01041667  0.03125000       0.031
   0.01041667  0.03125000  0.03125000       0.031
   0.03125000  0.03125000  0.03125000       0.031
  -0.03125000  0.03125000  0.03125000       0.031
  -0.01041667  0.03125000  0.03125000       0.031
   0.01041667 -0.03125000  0.03125000       0.031
   0.03125000 -0.03125000  0.03125000       0.031
  -0.03125000 -0.03125000  0.03125000       0.031
  -0.01041667 -0.03125000  0.03125000       0.031
   0.01041667 -0.01041667  0.03125000       0.031
   0.03125000 -0.01041667  0.03125000       0.031
  -0.03125000 -0.01041667  0.03125000       0.031
  -0.01041667 -0.01041667  0.03125000       0.031
 
 k-points in reciprocal lattice and weights: Gamma-point only                        
   0.12500000  0.12500000  0.12500000       0.031
   0.37500000  0.12500000  0.12500000       0.031
  -0.37500000  0.12500000  0.12500000       0.031
  -0.12500000  0.12500000  0.12500000       0.031
   0.12500000  0.37500000  0.12500000       0.031
   0.37500000  0.37500000  0.12500000       0.031
  -0.37500000  0.37500000  0.12500000       0.031
  -0.12500000  0.37500000  0.12500000       0.031
   0.12500000 -0.37500000  0.12500000       0.031
   0.37500000 -0.37500000  0.12500000       0.031
  -0.37500000 -0.37500000  0.12500000       0.031
  -0.12500000 -0.37500000  0.12500000       0.031
   0.12500000 -0.12500000  0.12500000       0.031
   0.37500000 -0.12500000  0.12500000       0.031
  -0.37500000 -0.12500000  0.12500000       0.031
  -0.12500000 -0.12500000  0.12500000       0.031
   0.12500000  0.12500000  0.37500000       0.031
   0.37500000  0.12500000  0.37500000       0.031
  -0.37500000  0.12500000  0.37500000       0.031
  -0.12500000  0.12500000  0.37500000       0.031
   0.12500000  0.37500000  0.37500000       0.031
   0.37500000  0.37500000  0.37500000       0.031
  -0.37500000  0.37500000  0.37500000       0.031
  -0.12500000  0.37500000  0.37500000       0.031
   0.12500000 -0.37500000  0.37500000       0.031
   0.37500000 -0.37500000  0.37500000       0.031
  -0.37500000 -0.37500000  0.37500000       0.031
  -0.12500000 -0.37500000  0.37500000       0.031
   0.12500000 -0.12500000  0.37500000       0.031
   0.37500000 -0.12500000  0.37500000       0.031
  -0.37500000 -0.12500000  0.37500000       0.031
  -0.12500000 -0.12500000  0.37500000       0.031
 
 position of ions in fractional coordinates (direct lattice) 
   0.00000000  0.07295802  0.11448698
   0.00000000  0.88991329  0.06654503
   0.00000000  0.25631323  0.06896799
   0.25631323  0.00000000  0.06896799
 
 position of ions in cartesian coordinates  (Angst):
   0.00000000  0.87549626  1.37384379
   0.00000000 10.67895951  0.79854038
   0.00000000  3.07575877  0.82761583
   3.07575877  0.00000000  0.82761583
 


--------------------------------------------------------------------------------------------------------


 k-point  1 :   0.1250 0.1250 0.1250  plane waves:   18382
 k-point  2 :   0.3750 0.1250 0.1250  plane waves:   18373
 k-point  3 :  -0.3750 0.1250 0.1250  plane waves:   18373
 k-point  4 :  -0.1250 0.1250 0.1250  plane waves:   18382
 k-point  5 :   0.1250 0.3750 0.1250  plane waves:   18373
 k-point  6 :   0.3750 0.3750 0.1250  plane waves:   18391
 k-point  7 :  -0.3750 0.3750 0.1250  plane waves:   18391
 k-point  8 :  -0.1250 0.3750 0.1250  plane waves:   18373
 k-point  9 :   0.1250-0.3750 0.1250  plane waves:   18373
 k-point 10 :   0.3750-0.3750 0.1250  plane waves:   18391
 k-point 11 :  -0.3750-0.3750 0.1250  plane waves:   18391
 k-point 12 :  -0.1250-0.3750 0.1250  plane waves:   18373
 k-point 13 :   0.1250-0.1250 0.1250  plane waves:   18382
 k-point 14 :   0.3750-0.1250 0.1250  plane waves:   18373
 k-point 15 :  -0.3750-0.1250 0.1250  plane waves:   18373
 k-point 16 :  -0.1250-0.1250 0.1250  plane waves:   18382
 k-point 17 :   0.1250 0.1250 0.3750  plane waves:   18373
 k-point 18 :   0.3750 0.1250 0.3750  plane waves:   18391
 k-point 19 :  -0.3750 0.1250 0.3750  plane waves:   18391
 k-point 20 :  -0.1250 0.1250 0.3750  plane waves:   18373
 k-point 21 :   0.1250 0.3750 0.3750  plane waves:   18391
 k-point 22 :   0.3750 0.3750 0.3750  plane waves:   18352
 k-point 23 :  -0.3750 0.3750 0.3750  plane waves:   18352
 k-point 24 :  -0.1250 0.3750 0.3750  plane waves:   18391
 k-point 25 :   0.1250-0.3750 0.3750  plane waves:   18391
 k-point 26 :   0.3750-0.3750 0.3750  plane waves:   18352
 k-point 27 :  -0.3750-0.3750 0.3750  plane waves:   18352
 k-point 28 :  -0.1250-0.3750 0.3750  plane waves:   18391
 k-point 29 :   0.1250-0.1250 0.3750  plane waves:   18373
 k-point 30 :   0.3750-0.1250 0.3750  plane waves:   18391
 k-point 31 :  -0.3750-0.1250 0.3750  plane waves:   18391
 k-point 32 :  -0.1250-0.1250 0.3750  plane waves:   18373

 maximum and minimum number of plane-waves per node :     18391    18352

 maximum number of plane-waves:     18391
 maximum index in each direction: 
   IXMAX=   16   IYMAX=   16   IZMAX=   16
   IXMIN=  -16   IYMIN=  -16   IZMIN=  -16


 serial   3D FFT for wavefunctions
 parallel 3D FFT for charge:
    minimum data exchange during FFTs selected (reduces bandwidth)


 total amount of memory used by VASP MPI-rank0   257290. kBytes
=======================================================================

   base      :      30000. kBytes
   nonl-proj :     170752. kBytes
   fftplans  :       2864. kBytes
   grid      :      15769. kBytes
   one-center:        124. kBytes
   wavefun   :      37781. kBytes
 
     INWAV:  cpu time    0.0000: real time    0.0000
 Broyden mixing: mesh for mixing (old mesh)
   NGX = 33   NGY = 33   NGZ = 33
  (NGX  =100   NGY  =100   NGZ  =100)
  gives a total of  35937 points

 initial charge density was supplied:
 charge density of overlapping atoms calculated
 number of electron      27.0000000 magnetization       4.0000000
 keeping initial charge density in first step


--------------------------------------------------------------------------------------------------------


 Maximum index for augmentation-charges          564 (set IRDMAX)


--------------------------------------------------------------------------------------------------------


 First call to EWALD:  gamma=   0.148
 Maximum number of real-space cells 3x 3x 3
 Maximum number of reciprocal cells 3x 3x 3

    FEWALD:  cpu time    0.0010: real time    0.0010


--------------------------------------- Iteration      1(   1)  ---------------------------------------


    POTLOK:  cpu time    0.0657: real time    0.0708
    SETDIJ:  cpu time    0.0040: real time    0.0041
     EDDAV:  cpu time    3.3450: real time    3.3842
       DOS:  cpu time    0.0018: real time    0.0020
    --------------------------------------------
      LOOP:  cpu time    3.4165: real time    3.4610

 eigenvalue-minimisations  :  5120
 total energy-change (2. order) : 0.1264593E+03  (-0.4968764E+03)
 number of electron      27.0000000 magnetization       4.0000000
 augmentation part       27.0000000 magnetization       4.0000000

 Free energy of the ion-electron system (eV)
  ---------------------------------------------------
  alpha Z        PSCENC =         3.31228677
  Ewald energy   TEWEN  =        73.22200166
  -Hartree energ DENC   =     -1298.45139742
  -exchange      EXHF   =         0.00000000
  -V(xc)+E(xc)   XCENC  =         9.60644024
  PAW double counting   =       837.06448330     -778.25893894
  entropy T*S    EENTRO =        -0.13064961
  eigenvalues    EBANDS =      -153.60043665
  atomic energy  EATOM  =      1433.69555464
  Solvation  Ediel_sol  =         0.00000000
  ---------------------------------------------------
  free energy    TOTEN  =       126.45934398 eV

  energy without entropy =      126.58999359  energy(sigma->0) =      126.52466879


--------------------------------------------------------------------------------------------------------




--------------------------------------- Iteration      1(   2)  ---------------------------------------


     EDDAV:  cpu time    4.6926: real time    4.7126
       DOS:  cpu time    0.0009: real time    0.0009
    --------------------------------------------
      LOOP:  cpu time    4.6935: real time    4.7135

 eigenvalue-minimisations  :  7584
 total energy-change (2. order) :-0.1286011E+03  (-0.1245149E+03)
 number of electron      27.0000000 magnetization       4.0000000
 augmentation part       27.0000000 magnetization       4.0000000

 Free energy of the ion-electron system (eV)
  ---------------------------------------------------
  alpha Z        PSCENC =         3.31228677
  Ewald energy   TEWEN  =        73.22200166
  -Hartree energ DENC   =     -1298.45139742
  -exchange      EXHF   =         0.00000000
  -V(xc)+E(xc)   XCENC  =         9.60644024
  PAW double counting   =       837.06448330     -778.25893894
  entropy T*S    EENTRO =        -0.06041405
  eigenvalues    EBANDS =      -282.27179197
  atomic energy  EATOM  =      1433.69555464
  Solvation  Ediel_sol  =         0.00000000
  ---------------------------------------------------
  free energy    TOTEN  =        -2.14177577 eV

  energy without entropy =       -2.08136172  energy(sigma->0) =       -2.11156875


--------------------------------------------------------------------------------------------------------




--------------------------------------- Iteration      1(   3)  ---------------------------------------


     EDDAV:  cpu time    3.9095: real time    3.9263
       DOS:  cpu time    0.0009: real time    0.0009
    --------------------------------------------
      LOOP:  cpu time    3.9104: real time    3.9272

 eigenvalue-minimisations  :  6224
 total energy-change (2. order) :-0.1624684E+02  (-0.1596795E+02)
 number of electron      27.0000000 magnetization       4.0000000
 augmentation part       27.0000000 magnetization       4.0000000

 Free energy of the ion-electron system (eV)
  ---------------------------------------------------
  alpha Z        PSCENC =         3.31228677
  Ewald energy   TEWEN  =        73.22200166
  -Hartree energ DENC   =     -1298.45139742
  -exchange      EXHF   =         0.00000000
  -V(xc)+E(xc)   XCENC  =         9.60644024
  PAW double counting   =       837.06448330     -778.25893894
  entropy T*S    EENTRO =        -0.12069642
  eigenvalues    EBANDS =      -298.45834732
  atomic energy  EATOM  =      1433.69555464
  Solvation  Ediel_sol  =         0.00000000
  ---------------------------------------------------
  free energy    TOTEN  =       -18.38861349 eV

  energy without entropy =      -18.26791708  energy(sigma->0) =      -18.32826529


--------------------------------------------------------------------------------------------------------




--------------------------------------- Iteration      1(   4)  ---------------------------------------


     EDDAV:  cpu time    2.8151: real time    2.8275
       DOS:  cpu time    0.0009: real time    0.0009
    --------------------------------------------
      LOOP:  cpu time    2.8159: real time    2.8284

 eigenvalue-minimisations  :  4176
 total energy-change (2. order) :-0.3180689E+00  (-0.3093207E+00)
 number of electron      27.0000000 magnetization       4.0000000
 augmentation part       27.0000000 magnetization       4.0000000

 Free energy of the ion-electron system (eV)
  ---------------------------------------------------
  alpha Z        PSCENC =         3.31228677
  Ewald energy   TEWEN  =        73.22200166
  -Hartree energ DENC   =     -1298.45139742
  -exchange      EXHF   =         0.00000000
  -V(xc)+E(xc)   XCENC  =         9.60644024
  PAW double counting   =       837.06448330     -778.25893894
  entropy T*S    EENTRO =        -0.13775202
  eigenvalues    EBANDS =      -298.75936061
  atomic energy  EATOM  =      1433.69555464
  Solvation  Ediel_sol  =         0.00000000
  ---------------------------------------------------
  free energy    TOTEN  =       -18.70668238 eV

  energy without entropy =      -18.56893037  energy(sigma->0) =      -18.63780637


--------------------------------------------------------------------------------------------------------




--------------------------------------- Iteration      1(   5)  ---------------------------------------


     EDDAV:  cpu time    4.3691: real time    4.3860
       DOS:  cpu time    0.0009: real time    0.0009
    CHARGE:  cpu time    0.2012: real time    0.2024
    MIXING:  cpu time    0.0044: real time    0.0045
    --------------------------------------------
      LOOP:  cpu time    4.5756: real time    4.5937

 eigenvalue-minimisations  :  7120
 total energy-change (2. order) :-0.9233030E-02  (-0.9210795E-02)
 number of electron      27.0000096 magnetization       2.9677712
 augmentation part       -2.6111909 magnetization       2.1179697

 Broyden mixing:
  rms(total) = 0.15876E+01    rms(broyden)= 0.15874E+01
  rms(prec ) = 0.18839E+01
  weight for this iteration     100.00

 Free energy of the ion-electron system (eV)
  ---------------------------------------------------
  alpha Z        PSCENC =         3.31228677
  Ewald energy   TEWEN  =        73.22200166
  -Hartree energ DENC   =     -1298.45139742
  -exchange      EXHF   =         0.00000000
  -V(xc)+E(xc)   XCENC  =         9.60644024
  PAW double counting   =       837.06448330     -778.25893894
  entropy T*S    EENTRO =        -0.13815100
  eigenvalues    EBANDS =      -298.76819466
  atomic energy  EATOM  =      1433.69555464
  Solvation  Ediel_sol  =         0.00000000
  ---------------------------------------------------
  free energy    TOTEN  =       -18.71591541 eV

  energy without entropy =      -18.57776442  energy(sigma->0) =      -18.64683991


--------------------------------------------------------------------------------------------------------




--------------------------------------- Iteration      1(   6)  ---------------------------------------


    POTLOK:  cpu time    0.0596: real time    0.0601
    SETDIJ:  cpu time    0.0044: real time    0.0047
     EDDAV:  cpu time    3.2829: real time    3.2962
       DOS:  cpu time    0.0009: real time    0.0009
    CHARGE:  cpu time    0.1975: real time    0.1985
    MIXING:  cpu time    0.0050: real time    0.0097
    --------------------------------------------
      LOOP:  cpu time    3.5503: real time    3.5700

 eigenvalue-minimisations  :  5072
 total energy-change (2. order) : 0.7139665E+01  (-0.2692678E+01)
 number of electron      27.0000094 magnetization       2.8157898
 augmentation part       -2.0124302 magnetization       0.7728812

 Broyden mixing:
  rms(total) = 0.65550E+00    rms(broyden)= 0.65468E+00
  rms(prec ) = 0.76889E+00
  weight for this iteration     100.00

 eigenvalues of (default mixing * dielectric matrix)
  average eigenvalue GAMMA=   0.8623
  0.8623

 Free energy of the ion-electron system (eV)
  ---------------------------------------------------
  alpha Z        PSCENC =         3.31228677
  Ewald energy   TEWEN  =        73.22200166
  -Hartree energ DENC   =     -1302.88126958
  -exchange      EXHF   =         0.00000000
  -V(xc)+E(xc)   XCENC  =        14.11393842
  PAW double counting   =       919.08417324     -861.41220249
  entropy T*S    EENTRO =        -0.11110215
  eigenvalues    EBANDS =      -290.59963049
  atomic energy  EATOM  =      1433.69555464
  Solvation  Ediel_sol  =         0.00000000
  ---------------------------------------------------
  free energy    TOTEN  =       -11.57624998 eV

  energy without entropy =      -11.46514783  energy(sigma->0) =      -11.52069890


--------------------------------------------------------------------------------------------------------




--------------------------------------- Iteration      1(   7)  ---------------------------------------


    POTLOK:  cpu time    0.0583: real time    0.0586
    SETDIJ:  cpu time    0.0032: real time    0.0033
     EDDAV:  cpu time    3.1214: real time    3.1349
       DOS:  cpu time    0.0009: real time    0.0009
    CHARGE:  cpu time    0.1502: real time    0.1507
    MIXING:  cpu time    0.0014: real time    0.0022
    --------------------------------------------
      LOOP:  cpu time    3.3354: real time    3.3506

 eigenvalue-minimisations  :  4784
 total energy-change (2. order) :-0.2431057E+01  (-0.6372932E+00)
 number of electron      27.0000093 magnetization       2.8543966
 augmentation part       -2.2145497 magnetization       0.3396460

 Broyden mixing:
  rms(total) = 0.56345E+00    rms(broyden)= 0.56310E+00
  rms(prec ) = 0.63120E+00
  weight for this iteration     100.00

 eigenvalues of (default mixing * dielectric matrix)
  average eigenvalue GAMMA=   1.0106
  1.3682  0.6531

 Free energy of the ion-electron system (eV)
  ---------------------------------------------------
  alpha Z        PSCENC =         3.31228677
  Ewald energy   TEWEN  =        73.22200166
  -Hartree energ DENC   =     -1302.06268008
  -exchange      EXHF   =         0.00000000
  -V(xc)+E(xc)   XCENC  =        12.74290615
  PAW double counting   =       952.42552033     -894.66034159
  entropy T*S    EENTRO =        -0.02207480
  eigenvalues    EBANDS =      -292.66047967
  atomic energy  EATOM  =      1433.69555464
  Solvation  Ediel_sol  =         0.00000000
  ---------------------------------------------------
  free energy    TOTEN  =       -14.00730659 eV

  energy without entropy =      -13.98523179  energy(sigma->0) =      -13.99626919


--------------------------------------------------------------------------------------------------------




--------------------------------------- Iteration      1(   8)  ---------------------------------------


    POTLOK:  cpu time    0.0585: real time    0.0588
    SETDIJ:  cpu time    0.0032: real time    0.0032
     EDDAV:  cpu time    3.1420: real time    3.1541
       DOS:  cpu time    0.0009: real time    0.0009
    CHARGE:  cpu time    0.1499: real time    0.1510
    MIXING:  cpu time    0.0015: real time    0.0021
    --------------------------------------------
      LOOP:  cpu time    3.3558: real time    3.3703

 eigenvalue-minimisations  :  4800
 total energy-change (2. order) :-0.4902052E+00  (-0.2701890E+00)
 number of electron      27.0000095 magnetization       2.9351145
 augmentation part       -2.0734709 magnetization       0.3346065

 Broyden mixing:
  rms(total) = 0.31712E+00    rms(broyden)= 0.31653E+00
  rms(prec ) = 0.38784E+00
  weight for this iteration     100.00

 eigenvalues of (default mixing * dielectric matrix)
  average eigenvalue GAMMA=   0.9369
  1.4736  0.6685  0.6685

 Free energy of the ion-electron system (eV)
  ---------------------------------------------------
  alpha Z        PSCENC =         3.31228677
  Ewald energy   TEWEN  =        73.22200166
  -Hartree energ DENC   =     -1305.29614854
  -exchange      EXHF   =         0.00000000
  -V(xc)+E(xc)   XCENC  =        13.29130758
  PAW double counting   =      1009.59489865     -952.04564935
  entropy T*S    EENTRO =        -0.13062469
  eigenvalues    EBANDS =      -290.14113852
  atomic energy  EATOM  =      1433.69555464
  Solvation  Ediel_sol  =         0.00000000
  ---------------------------------------------------
  free energy    TOTEN  =       -14.49751181 eV

  energy without entropy =      -14.36688712  energy(sigma->0) =      -14.43219946


--------------------------------------------------------------------------------------------------------




--------------------------------------- Iteration      1(   9)  ---------------------------------------


    POTLOK:  cpu time    0.0585: real time    0.0589
    SETDIJ:  cpu time    0.0032: real time    0.0032
     EDDAV:  cpu time    3.7021: real time    3.7160
       DOS:  cpu time    0.0010: real time    0.0010
    CHARGE:  cpu time    0.1507: real time    0.1518
    MIXING:  cpu time    0.0015: real time    0.0015
    --------------------------------------------
      LOOP:  cpu time    3.9170: real time    3.9325

 eigenvalue-minimisations  :  5856
 total energy-change (2. order) :-0.6237840E+00  (-0.1059524E+00)
 number of electron      27.0000094 magnetization       2.9645979
 augmentation part       -2.1651308 magnetization       0.4966062

 Broyden mixing:
  rms(total) = 0.17522E+00    rms(broyden)= 0.17511E+00
  rms(prec ) = 0.22699E+00
  weight for this iteration     100.00

 eigenvalues of (default mixing * dielectric matrix)
  average eigenvalue GAMMA=   1.0064
  1.9329  0.8069  0.8069  0.4788

 Free energy of the ion-electron system (eV)
  ---------------------------------------------------
  alpha Z        PSCENC =         3.31228677
  Ewald energy   TEWEN  =        73.22200166
  -Hartree energ DENC   =     -1305.45272462
  -exchange      EXHF   =         0.00000000
  -V(xc)+E(xc)   XCENC  =        12.52787334
  PAW double counting   =      1019.74550381     -962.14851577
  entropy T*S    EENTRO =        -0.05918438
  eigenvalues    EBANDS =      -289.96409123
  atomic energy  EATOM  =      1433.69555464
  Solvation  Ediel_sol  =         0.00000000
  ---------------------------------------------------
  free energy    TOTEN  =       -15.12129577 eV

  energy without entropy =      -15.06211139  energy(sigma->0) =      -15.09170358


--------------------------------------------------------------------------------------------------------




--------------------------------------- Iteration      1(  10)  ---------------------------------------


    POTLOK:  cpu time    0.0590: real time    0.0595
    SETDIJ:  cpu time    0.0032: real time    0.0032
     EDDAV:  cpu time    3.1550: real time    3.1695
       DOS:  cpu time    0.0009: real time    0.0009
    CHARGE:  cpu time    0.1500: real time    0.1511
    MIXING:  cpu time    0.0019: real time    0.0019
    --------------------------------------------
      LOOP:  cpu time    3.3700: real time    3.3860

 eigenvalue-minimisations  :  4816
 total energy-change (2. order) :-0.3963709E+00  (-0.2429942E-01)
 number of electron      27.0000095 magnetization       2.9812815
 augmentation part       -2.1318650 magnetization       0.5224741

 Broyden mixing:
  rms(total) = 0.73763E-01    rms(broyden)= 0.73611E-01
  rms(prec ) = 0.95352E-01
  weight for this iteration     100.00

 eigenvalues of (default mixing * dielectric matrix)
  average eigenvalue GAMMA=   1.0504
  2.1721  0.9973  0.9973  0.6276  0.4580

 Free energy of the ion-electron system (eV)
  ---------------------------------------------------
  alpha Z        PSCENC =         3.31228677
  Ewald energy   TEWEN  =        73.22200166
  -Hartree energ DENC   =     -1306.66706242
  -exchange      EXHF   =         0.00000000
  -V(xc)+E(xc)   XCENC  =        12.30087172
  PAW double counting   =      1041.19454854     -983.63860569
  entropy T*S    EENTRO =        -0.08138610
  eigenvalues    EBANDS =      -288.85587578
  atomic energy  EATOM  =      1433.69555464
  Solvation  Ediel_sol  =         0.00000000
  ---------------------------------------------------
  free energy    TOTEN  =       -15.51766667 eV

  energy without entropy =      -15.43628057  energy(sigma->0) =      -15.47697362


--------------------------------------------------------------------------------------------------------




--------------------------------------- Iteration      1(  11)  ---------------------------------------


    POTLOK:  cpu time    0.0588: real time    0.0591
    SETDIJ:  cpu time    0.0033: real time    0.0033
     EDDAV:  cpu time    3.1791: real time    3.1908
       DOS:  cpu time    0.0009: real time    0.0009
    CHARGE:  cpu time    0.1500: real time    0.1510
    MIXING:  cpu time    0.0017: real time    0.0017
    --------------------------------------------
      LOOP:  cpu time    3.3937: real time    3.4068

 eigenvalue-minimisations  :  4880
 total energy-change (2. order) :-0.2855723E+00  (-0.7763951E-02)
 number of electron      27.0000095 magnetization       2.9963460
 augmentation part       -2.1226537 magnetization       0.5401501

 Broyden mixing:
  rms(total) = 0.59403E-01    rms(broyden)= 0.59257E-01
  rms(prec ) = 0.76875E-01
  weight for this iteration     100.00

 eigenvalues of (default mixing * dielectric matrix)
  average eigenvalue GAMMA=   1.0653
  2.5239  1.0485  1.0485  0.5080  0.6315  0.6315

 Free energy of the ion-electron system (eV)
  ---------------------------------------------------
  alpha Z        PSCENC =         3.31228677
  Ewald energy   TEWEN  =        73.22200166
  -Hartree energ DENC   =     -1306.68277315
  -exchange      EXHF   =         0.00000000
  -V(xc)+E(xc)   XCENC  =        12.01966447
  PAW double counting   =      1048.55661506     -990.99348593
  entropy T*S    EENTRO =        -0.09839392
  eigenvalues    EBANDS =      -288.83470860
  atomic energy  EATOM  =      1433.69555464
  Solvation  Ediel_sol  =         0.00000000
  ---------------------------------------------------
  free energy    TOTEN  =       -15.80323901 eV

  energy without entropy =      -15.70484509  energy(sigma->0) =      -15.75404205


--------------------------------------------------------------------------------------------------------




--------------------------------------- Iteration      1(  12)  ---------------------------------------


    POTLOK:  cpu time    0.0584: real time    0.0587
    SETDIJ:  cpu time    0.0032: real time    0.0032
     EDDAV:  cpu time    3.6053: real time    3.6183
       DOS:  cpu time    0.0009: real time    0.0009
    CHARGE:  cpu time    0.1500: real time    0.1505
    MIXING:  cpu time    0.0018: real time    0.0018
    --------------------------------------------
      LOOP:  cpu time    3.8197: real time    3.8334

 eigenvalue-minimisations  :  5680
 total energy-change (2. order) :-0.1041011E+00  (-0.2465361E-02)
 number of electron      27.0000095 magnetization       3.0014735
 augmentation part       -2.1291138 magnetization       0.5536623

 Broyden mixing:
  rms(total) = 0.30106E-01    rms(broyden)= 0.30045E-01
  rms(prec ) = 0.42767E-01
  weight for this iteration     100.00

 eigenvalues of (default mixing * dielectric matrix)
  average eigenvalue GAMMA=   1.0984
  2.5626  1.2170  1.2170  0.8095  0.8095  0.4960  0.5769

 Free energy of the ion-electron system (eV)
  ---------------------------------------------------
  alpha Z        PSCENC =         3.31228677
  Ewald energy   TEWEN  =        73.22200166
  -Hartree energ DENC   =     -1306.46650217
  -exchange      EXHF   =         0.00000000
  -V(xc)+E(xc)   XCENC  =        11.94337578
  PAW double counting   =      1055.06464764     -997.48599678
  entropy T*S    EENTRO =        -0.09967895
  eigenvalues    EBANDS =      -289.09302864
  atomic energy  EATOM  =      1433.69555464
  Solvation  Ediel_sol  =         0.00000000
  ---------------------------------------------------
  free energy    TOTEN  =       -15.90734006 eV

  energy without entropy =      -15.80766110  energy(sigma->0) =      -15.85750058


--------------------------------------------------------------------------------------------------------




--------------------------------------- Iteration      1(  13)  ---------------------------------------


    POTLOK:  cpu time    0.0583: real time    0.0586
    SETDIJ:  cpu time    0.0032: real time    0.0032
     EDDAV:  cpu time    3.5684: real time    3.5805
       DOS:  cpu time    0.0009: real time    0.0009
    CHARGE:  cpu time    0.1497: real time    0.1502
    MIXING:  cpu time    0.0020: real time    0.0020
    --------------------------------------------
      LOOP:  cpu time    3.7825: real time    3.7954

 eigenvalue-minimisations  :  5648
 total energy-change (2. order) :-0.5278779E-01  (-0.1362920E-02)
 number of electron      27.0000094 magnetization       3.0031748
 augmentation part       -2.1414576 magnetization       0.5528409

 Broyden mixing:
  rms(total) = 0.28993E-01    rms(broyden)= 0.28891E-01
  rms(prec ) = 0.47554E-01
  weight for this iteration     100.00

 eigenvalues of (default mixing * dielectric matrix)
  average eigenvalue GAMMA=   1.0649
  2.4119  1.2909  1.0113  1.0113  0.8876  0.8572  0.4834  0.5653

 Free energy of the ion-electron system (eV)
  ---------------------------------------------------
  alpha Z        PSCENC =         3.31228677
  Ewald energy   TEWEN  =        73.22200166
  -Hartree energ DENC   =     -1306.05992381
  -exchange      EXHF   =         0.00000000
  -V(xc)+E(xc)   XCENC  =        11.83592174
  PAW double counting   =      1054.56953554     -996.97389161
  entropy T*S    EENTRO =        -0.09418498
  eigenvalues    EBANDS =      -289.46742780
  atomic energy  EATOM  =      1433.69555464
  Solvation  Ediel_sol  =         0.00000000
  ---------------------------------------------------
  free energy    TOTEN  =       -15.96012785 eV

  energy without entropy =      -15.86594287  energy(sigma->0) =      -15.91303536


--------------------------------------------------------------------------------------------------------




--------------------------------------- Iteration      1(  14)  ---------------------------------------


    POTLOK:  cpu time    0.0585: real time    0.0589
    SETDIJ:  cpu time    0.0032: real time    0.0032
     EDDAV:  cpu time    3.5140: real time    3.5266
       DOS:  cpu time    0.0009: real time    0.0009
    CHARGE:  cpu time    0.1497: real time    0.1508
    MIXING:  cpu time    0.0021: real time    0.0021
    --------------------------------------------
      LOOP:  cpu time    3.7284: real time    3.7424

 eigenvalue-minimisations  :  5488
 total energy-change (2. order) :-0.1244977E-01  (-0.6596024E-03)
 number of electron      27.0000095 magnetization       3.0082653
 augmentation part       -2.1343774 magnetization       0.5573110

 Broyden mixing:
  rms(total) = 0.10873E-01    rms(broyden)= 0.10835E-01
  rms(prec ) = 0.22991E-01
  weight for this iteration     100.00

 eigenvalues of (default mixing * dielectric matrix)
  average eigenvalue GAMMA=   1.0851
  2.4206  1.4805  1.4805  0.9922  0.9922  0.6538  0.6538  0.4748  0.6170

 Free energy of the ion-electron system (eV)
  ---------------------------------------------------
  alpha Z        PSCENC =         3.31228677
  Ewald energy   TEWEN  =        73.22200166
  -Hartree energ DENC   =     -1305.90276075
  -exchange      EXHF   =         0.00000000
  -V(xc)+E(xc)   XCENC  =        11.81398755
  PAW double counting   =      1053.92466555     -996.32884235
  entropy T*S    EENTRO =        -0.09880292
  eigenvalues    EBANDS =      -289.61066776
  atomic energy  EATOM  =      1433.69555464
  Solvation  Ediel_sol  =         0.00000000
  ---------------------------------------------------
  free energy    TOTEN  =       -15.97257761 eV

  energy without entropy =      -15.87377470  energy(sigma->0) =      -15.92317616


--------------------------------------------------------------------------------------------------------




--------------------------------------- Iteration      1(  15)  ---------------------------------------


    POTLOK:  cpu time    0.0586: real time    0.0590
    SETDIJ:  cpu time    0.0031: real time    0.0031
     EDDAV:  cpu time    3.3069: real time    3.3191
       DOS:  cpu time    0.0010: real time    0.0010
    CHARGE:  cpu time    0.1487: real time    0.1493
    MIXING:  cpu time    0.0025: real time    0.0025
    --------------------------------------------
      LOOP:  cpu time    3.5208: real time    3.5340

 eigenvalue-minimisations  :  5120
 total energy-change (2. order) :-0.9739417E-02  (-0.1654002E-03)
 number of electron      27.0000095 magnetization       3.0112285
 augmentation part       -2.1350843 magnetization       0.5615948

 Broyden mixing:
  rms(total) = 0.74171E-02    rms(broyden)= 0.74023E-02
  rms(prec ) = 0.17444E-01
  weight for this iteration     100.00

 eigenvalues of (default mixing * dielectric matrix)
  average eigenvalue GAMMA=   1.1607
  2.8087  2.0212  1.2506  1.2506  0.7739  0.7739  0.8263  0.8263  0.4781  0.5976

 Free energy of the ion-electron system (eV)
  ---------------------------------------------------
  alpha Z        PSCENC =         3.31228677
  Ewald energy   TEWEN  =        73.22200166
  -Hartree energ DENC   =     -1305.66798566
  -exchange      EXHF   =         0.00000000
  -V(xc)+E(xc)   XCENC  =        11.79957342
  PAW double counting   =      1054.52684833     -996.92657511
  entropy T*S    EENTRO =        -0.09711117
  eigenvalues    EBANDS =      -289.84690991
  atomic energy  EATOM  =      1433.69555464
  Solvation  Ediel_sol  =         0.00000000
  ---------------------------------------------------
  free energy    TOTEN  =       -15.98231703 eV

  energy without entropy =      -15.88520586  energy(sigma->0) =      -15.93376145


--------------------------------------------------------------------------------------------------------




--------------------------------------- Iteration      1(  16)  ---------------------------------------


    POTLOK:  cpu time    0.0585: real time    0.0588
    SETDIJ:  cpu time    0.0032: real time    0.0032
     EDDAV:  cpu time    3.5253: real time    3.5383
       DOS:  cpu time    0.0009: real time    0.0009
    CHARGE:  cpu time    0.1493: real time    0.1497
    MIXING:  cpu time    0.0024: real time    0.0027
    --------------------------------------------
      LOOP:  cpu time    3.7396: real time    3.7537

 eigenvalue-minimisations  :  5536
 total energy-change (2. order) :-0.2921586E-02  (-0.1268977E-03)
 number of electron      27.0000095 magnetization       3.0107002
 augmentation part       -2.1356390 magnetization       0.5621390

 Broyden mixing:
  rms(total) = 0.91765E-02    rms(broyden)= 0.91747E-02
  rms(prec ) = 0.15654E-01
  weight for this iteration     100.00

 eigenvalues of (default mixing * dielectric matrix)
  average eigenvalue GAMMA=   1.1886
  2.9784  2.3092  1.2522  1.2522  0.9977  0.9977  0.7403  0.7403  0.4779  0.7179
  0.6107

 Free energy of the ion-electron system (eV)
  ---------------------------------------------------
  alpha Z        PSCENC =         3.31228677
  Ewald energy   TEWEN  =        73.22200166
  -Hartree energ DENC   =     -1305.55918419
  -exchange      EXHF   =         0.00000000
  -V(xc)+E(xc)   XCENC  =        11.79349258
  PAW double counting   =      1055.47191559     -997.86983864
  entropy T*S    EENTRO =        -0.09765926
  eigenvalues    EBANDS =      -289.95380776
  atomic energy  EATOM  =      1433.69555464
  Solvation  Ediel_sol  =         0.00000000
  ---------------------------------------------------
  free energy    TOTEN  =       -15.98523862 eV

  energy without entropy =      -15.88757936  energy(sigma->0) =      -15.93640899


--------------------------------------------------------------------------------------------------------




--------------------------------------- Iteration      1(  17)  ---------------------------------------


    POTLOK:  cpu time    0.0584: real time    0.0588
    SETDIJ:  cpu time    0.0032: real time    0.0032
     EDDAV:  cpu time    3.2039: real time    3.2179
       DOS:  cpu time    0.0009: real time    0.0009
    CHARGE:  cpu time    0.1487: real time    0.1493
    MIXING:  cpu time    0.0024: real time    0.0024
    --------------------------------------------
      LOOP:  cpu time    3.4176: real time    3.4326

 eigenvalue-minimisations  :  4912
 total energy-change (2. order) :-0.3576859E-02  (-0.1007433E-03)
 number of electron      27.0000095 magnetization       3.0100553
 augmentation part       -2.1341054 magnetization       0.5612973

 Broyden mixing:
  rms(total) = 0.44797E-02    rms(broyden)= 0.44698E-02
  rms(prec ) = 0.80426E-02
  weight for this iteration     100.00

 eigenvalues of (default mixing * dielectric matrix)
  average eigenvalue GAMMA=   1.2287
  3.3054  2.4487  1.3941  1.2479  1.2479  0.9449  0.9449  0.7273  0.7273  0.4781
  0.6752  0.6022

 Free energy of the ion-electron system (eV)
  ---------------------------------------------------
  alpha Z        PSCENC =         3.31228677
  Ewald energy   TEWEN  =        73.22200166
  -Hartree energ DENC   =     -1305.48659090
  -exchange      EXHF   =         0.00000000
  -V(xc)+E(xc)   XCENC  =        11.79000831
  PAW double counting   =      1055.22650339     -997.62577790
  entropy T*S    EENTRO =        -0.09980860
  eigenvalues    EBANDS =      -290.02299283
  atomic energy  EATOM  =      1433.69555464
  Solvation  Ediel_sol  =         0.00000000
  ---------------------------------------------------
  free energy    TOTEN  =       -15.98881548 eV

  energy without entropy =      -15.88900687  energy(sigma->0) =      -15.93891118


--------------------------------------------------------------------------------------------------------




--------------------------------------- Iteration      1(  18)  ---------------------------------------


    POTLOK:  cpu time    0.0590: real time    0.0593
    SETDIJ:  cpu time    0.0031: real time    0.0031
     EDDAV:  cpu time    3.6430: real time    3.6557
       DOS:  cpu time    0.0010: real time    0.0010
    CHARGE:  cpu time    0.1487: real time    0.1491
    MIXING:  cpu time    0.0026: real time    0.0026
    --------------------------------------------
      LOOP:  cpu time    3.8573: real time    3.8707

 eigenvalue-minimisations  :  5744
 total energy-change (2. order) :-0.1862426E-02  (-0.4100667E-04)
 number of electron      27.0000095 magnetization       3.0087583
 augmentation part       -2.1330002 magnetization       0.5604108

 Broyden mixing:
  rms(total) = 0.32728E-02    rms(broyden)= 0.32617E-02
  rms(prec ) = 0.57217E-02
  weight for this iteration     100.00

 eigenvalues of (default mixing * dielectric matrix)
  average eigenvalue GAMMA=   1.2716
  3.8164  2.4736  1.3539  1.3539  1.4736  1.0296  1.0296  0.7694  0.7694  0.4779
  0.6891  0.6891  0.6054

 Free energy of the ion-electron system (eV)
  ---------------------------------------------------
  alpha Z        PSCENC =         3.31228677
  Ewald energy   TEWEN  =        73.22200166
  -Hartree energ DENC   =     -1305.42076371
  -exchange      EXHF   =         0.00000000
  -V(xc)+E(xc)   XCENC  =        11.78850319
  PAW double counting   =      1055.29417686     -997.69438049
  entropy T*S    EENTRO =        -0.10127013
  eigenvalues    EBANDS =      -290.08678670
  atomic energy  EATOM  =      1433.69555464
  Solvation  Ediel_sol  =         0.00000000
  ---------------------------------------------------
  free energy    TOTEN  =       -15.99067790 eV

  energy without entropy =      -15.88940777  energy(sigma->0) =      -15.94004284


--------------------------------------------------------------------------------------------------------




--------------------------------------- Iteration      1(  19)  ---------------------------------------


    POTLOK:  cpu time    0.0582: real time    0.0586
    SETDIJ:  cpu time    0.0031: real time    0.0031
     EDDAV:  cpu time    3.1087: real time    3.1196
       DOS:  cpu time    0.0009: real time    0.0009
    CHARGE:  cpu time    0.1489: real time    0.1493
    MIXING:  cpu time    0.0026: real time    0.0026
    --------------------------------------------
      LOOP:  cpu time    3.3224: real time    3.3342

 eigenvalue-minimisations  :  4752
 total energy-change (2. order) :-0.1528938E-02  (-0.1878537E-04)
 number of electron      27.0000095 magnetization       3.0073624
 augmentation part       -2.1337627 magnetization       0.5594224

 Broyden mixing:
  rms(total) = 0.17372E-02    rms(broyden)= 0.17361E-02
  rms(prec ) = 0.34544E-02
  weight for this iteration     100.00

 eigenvalues of (default mixing * dielectric matrix)
  average eigenvalue GAMMA=   1.3302
  4.4951  2.1832  2.1832  1.3710  1.3710  1.0949  1.0949  0.7751  0.7751  0.4779
  0.7775  0.7775  0.6096  0.6366

 Free energy of the ion-electron system (eV)
  ---------------------------------------------------
  alpha Z        PSCENC =         3.31228677
  Ewald energy   TEWEN  =        73.22200166
  -Hartree energ DENC   =     -1305.38295418
  -exchange      EXHF   =         0.00000000
  -V(xc)+E(xc)   XCENC  =        11.78582664
  PAW double counting   =      1055.35577158     -997.75646783
  entropy T*S    EENTRO =        -0.10066379
  eigenvalues    EBANDS =      -290.12356232
  atomic energy  EATOM  =      1433.69555464
  Solvation  Ediel_sol  =         0.00000000
  ---------------------------------------------------
  free energy    TOTEN  =       -15.99220684 eV

  energy without entropy =      -15.89154305  energy(sigma->0) =      -15.94187494


--------------------------------------------------------------------------------------------------------




--------------------------------------- Iteration      1(  20)  ---------------------------------------


    POTLOK:  cpu time    0.0581: real time    0.0584
    SETDIJ:  cpu time    0.0031: real time    0.0032
     EDDAV:  cpu time    3.6083: real time    3.6212
       DOS:  cpu time    0.0011: real time    0.0011
    CHARGE:  cpu time    0.1487: real time    0.1492
    MIXING:  cpu time    0.0030: real time    0.0030
    --------------------------------------------
      LOOP:  cpu time    3.8223: real time    3.8361

 eigenvalue-minimisations  :  5696
 total energy-change (2. order) :-0.8445718E-03  (-0.1104163E-04)
 number of electron      27.0000095 magnetization       3.0065973
 augmentation part       -2.1334523 magnetization       0.5587855

 Broyden mixing:
  rms(total) = 0.16474E-02    rms(broyden)= 0.16445E-02
  rms(prec ) = 0.27292E-02
  weight for this iteration     100.00

 eigenvalues of (default mixing * dielectric matrix)
  average eigenvalue GAMMA=   1.3884
  5.1664  2.4472  2.1642  1.3265  1.3265  1.3257  1.3257  0.9100  0.9100  0.7572
  0.7572  0.4779  0.6777  0.6124  0.6410

 Free energy of the ion-electron system (eV)
  ---------------------------------------------------
  alpha Z        PSCENC =         3.31228677
  Ewald energy   TEWEN  =        73.22200166
  -Hartree energ DENC   =     -1305.35965304
  -exchange      EXHF   =         0.00000000
  -V(xc)+E(xc)   XCENC  =        11.78552145
  PAW double counting   =      1055.39189858     -997.79331391
  entropy T*S    EENTRO =        -0.10069746
  eigenvalues    EBANDS =      -290.14665010
  atomic energy  EATOM  =      1433.69555464
  Solvation  Ediel_sol  =         0.00000000
  ---------------------------------------------------
  free energy    TOTEN  =       -15.99305141 eV

  energy without entropy =      -15.89235395  energy(sigma->0) =      -15.94270268


--------------------------------------------------------------------------------------------------------




--------------------------------------- Iteration      1(  21)  ---------------------------------------


    POTLOK:  cpu time    0.0582: real time    0.0586
    SETDIJ:  cpu time    0.0031: real time    0.0032
     EDDAV:  cpu time    3.3180: real time    3.3305
       DOS:  cpu time    0.0009: real time    0.0009
    CHARGE:  cpu time    0.1484: real time    0.1489
    MIXING:  cpu time    0.0028: real time    0.0029
    --------------------------------------------
      LOOP:  cpu time    3.5315: real time    3.5450

 eigenvalue-minimisations  :  5056
 total energy-change (2. order) :-0.4272185E-03  (-0.3619281E-05)
 number of electron      27.0000095 magnetization       3.0065327
 augmentation part       -2.1338057 magnetization       0.5586120

 Broyden mixing:
  rms(total) = 0.10410E-02    rms(broyden)= 0.10394E-02
  rms(prec ) = 0.17879E-02
  weight for this iteration     100.00

 eigenvalues of (default mixing * dielectric matrix)
  average eigenvalue GAMMA=   1.3995
  5.5229  2.5818  2.1701  1.3492  1.3492  1.2955  1.2955  1.1307  0.7612  0.7612
  0.8842  0.8842  0.4779  0.7011  0.6137  0.6137

 Free energy of the ion-electron system (eV)
  ---------------------------------------------------
  alpha Z        PSCENC =         3.31228677
  Ewald energy   TEWEN  =        73.22200166
  -Hartree energ DENC   =     -1305.34585611
  -exchange      EXHF   =         0.00000000
  -V(xc)+E(xc)   XCENC  =        11.78419011
  PAW double counting   =      1055.32290610     -997.72417483
  entropy T*S    EENTRO =        -0.10034646
  eigenvalues    EBANDS =      -290.16004052
  atomic energy  EATOM  =      1433.69555464
  Solvation  Ediel_sol  =         0.00000000
  ---------------------------------------------------
  free energy    TOTEN  =       -15.99347863 eV

  energy without entropy =      -15.89313217  energy(sigma->0) =      -15.94330540


--------------------------------------------------------------------------------------------------------




--------------------------------------- Iteration      1(  22)  ---------------------------------------


    POTLOK:  cpu time    0.0584: real time    0.0587
    SETDIJ:  cpu time    0.0031: real time    0.0031
     EDDAV:  cpu time    3.2940: real time    3.3059
       DOS:  cpu time    0.0009: real time    0.0009
    CHARGE:  cpu time    0.1487: real time    0.1491
    MIXING:  cpu time    0.0030: real time    0.0030
    --------------------------------------------
      LOOP:  cpu time    3.5081: real time    3.5207

 eigenvalue-minimisations  :  5024
 total energy-change (2. order) :-0.3107670E-03  (-0.2035913E-05)
 number of electron      27.0000095 magnetization       3.0065660
 augmentation part       -2.1337279 magnetization       0.5584596

 Broyden mixing:
  rms(total) = 0.58771E-03    rms(broyden)= 0.58741E-03
  rms(prec ) = 0.11124E-02
  weight for this iteration     100.00

 eigenvalues of (default mixing * dielectric matrix)
  average eigenvalue GAMMA=   1.4417
  6.0755  2.6072  2.6072  1.3539  1.3539  1.3586  1.3586  1.0482  1.0482  1.0049
  0.7605  0.7605  0.4779  0.7682  0.6978  0.6142  0.6142

 Free energy of the ion-electron system (eV)
  ---------------------------------------------------
  alpha Z        PSCENC =         3.31228677
  Ewald energy   TEWEN  =        73.22200166
  -Hartree energ DENC   =     -1305.33692801
  -exchange      EXHF   =         0.00000000
  -V(xc)+E(xc)   XCENC  =        11.78355116
  PAW double counting   =      1055.31662026     -997.71777303
  entropy T*S    EENTRO =        -0.10040239
  eigenvalues    EBANDS =      -290.16870046
  atomic energy  EATOM  =      1433.69555464
  Solvation  Ediel_sol  =         0.00000000
  ---------------------------------------------------
  free energy    TOTEN  =       -15.99378940 eV

  energy without entropy =      -15.89338701  energy(sigma->0) =      -15.94358820


--------------------------------------------------------------------------------------------------------




--------------------------------------- Iteration      1(  23)  ---------------------------------------


    POTLOK:  cpu time    0.0584: real time    0.0588
    SETDIJ:  cpu time    0.0031: real time    0.0031
     EDDAV:  cpu time    3.2532: real time    3.2648
       DOS:  cpu time    0.0009: real time    0.0009
    CHARGE:  cpu time    0.1484: real time    0.1488
    MIXING:  cpu time    0.0031: real time    0.0031
    --------------------------------------------
      LOOP:  cpu time    3.4671: real time    3.4795

 eigenvalue-minimisations  :  4960
 total energy-change (2. order) :-0.1880073E-03  (-0.1330126E-05)
 number of electron      27.0000095 magnetization       3.0067276
 augmentation part       -2.1337222 magnetization       0.5585057

 Broyden mixing:
  rms(total) = 0.50251E-03    rms(broyden)= 0.50194E-03
  rms(prec ) = 0.81053E-03
  weight for this iteration     100.00

 eigenvalues of (default mixing * dielectric matrix)
  average eigenvalue GAMMA=   1.4984
  6.7496  3.2716  2.1615  1.8816  1.3628  1.3628  1.3921  1.3921  1.0016  1.0016
  0.7612  0.7612  0.4779  0.7678  0.7678  0.6204  0.6204  0.6170

 Free energy of the ion-electron system (eV)
  ---------------------------------------------------
  alpha Z        PSCENC =         3.31228677
  Ewald energy   TEWEN  =        73.22200166
  -Hartree energ DENC   =     -1305.32959727
  -exchange      EXHF   =         0.00000000
  -V(xc)+E(xc)   XCENC  =        11.78329671
  PAW double counting   =      1055.27344766     -997.67463213
  entropy T*S    EENTRO =        -0.10038811
  eigenvalues    EBANDS =      -290.17594734
  atomic energy  EATOM  =      1433.69555464
  Solvation  Ediel_sol  =         0.00000000
  ---------------------------------------------------
  free energy    TOTEN  =       -15.99397741 eV

  energy without entropy =      -15.89358930  energy(sigma->0) =      -15.94378335


--------------------------------------------------------------------------------------------------------




--------------------------------------- Iteration      1(  24)  ---------------------------------------


    POTLOK:  cpu time    0.0587: real time    0.0591
    SETDIJ:  cpu time    0.0031: real time    0.0031
     EDDAV:  cpu time    3.2480: real time    3.2595
       DOS:  cpu time    0.0009: real time    0.0009
    CHARGE:  cpu time    0.1483: real time    0.1488
    MIXING:  cpu time    0.0033: real time    0.0033
    --------------------------------------------
      LOOP:  cpu time    3.4623: real time    3.4748

 eigenvalue-minimisations  :  4944
 total energy-change (2. order) :-0.1056289E-03  (-0.5444943E-06)
 number of electron      27.0000095 magnetization       3.0070064
 augmentation part       -2.1337386 magnetization       0.5587605

 Broyden mixing:
  rms(total) = 0.35883E-03    rms(broyden)= 0.35861E-03
  rms(prec ) = 0.57761E-03
  weight for this iteration     100.00

 eigenvalues of (default mixing * dielectric matrix)
  average eigenvalue GAMMA=   1.5338
  7.3195  3.5225  2.3873  1.7147  1.3429  1.3429  1.3604  1.3604  1.4428  0.9420
  0.9420  0.7588  0.7588  0.9020  0.4779  0.6883  0.6507  0.6145  0.6145

 Free energy of the ion-electron system (eV)
  ---------------------------------------------------
  alpha Z        PSCENC =         3.31228677
  Ewald energy   TEWEN  =        73.22200166
  -Hartree energ DENC   =     -1305.32246826
  -exchange      EXHF   =         0.00000000
  -V(xc)+E(xc)   XCENC  =        11.78263344
  PAW double counting   =      1055.24568292     -997.64670658
  entropy T*S    EENTRO =        -0.10038926
  eigenvalues    EBANDS =      -290.18267836
  atomic energy  EATOM  =      1433.69555464
  Solvation  Ediel_sol  =         0.00000000
  ---------------------------------------------------
  free energy    TOTEN  =       -15.99408303 eV

  energy without entropy =      -15.89369377  energy(sigma->0) =      -15.94388840


--------------------------------------------------------------------------------------------------------




--------------------------------------- Iteration      1(  25)  ---------------------------------------


    POTLOK:  cpu time    0.0582: real time    0.0586
    SETDIJ:  cpu time    0.0031: real time    0.0031
     EDDAV:  cpu time    3.0618: real time    3.0732
       DOS:  cpu time    0.0009: real time    0.0009
    --------------------------------------------
      LOOP:  cpu time    3.1240: real time    3.1358

 eigenvalue-minimisations  :  4512
 total energy-change (2. order) :-0.8846370E-04  (-0.4617739E-06)
 number of electron      27.0000095 magnetization       3.0070064
 augmentation part       -2.1337386 magnetization       0.5587605

 Free energy of the ion-electron system (eV)
  ---------------------------------------------------
  alpha Z        PSCENC =         3.31228677
  Ewald energy   TEWEN  =        73.22200166
  -Hartree energ DENC   =     -1305.31716422
  -exchange      EXHF   =         0.00000000
  -V(xc)+E(xc)   XCENC  =        11.78269607
  PAW double counting   =      1055.26100625     -997.66202884
  entropy T*S    EENTRO =        -0.10050915
  eigenvalues    EBANDS =      -290.18801467
  atomic energy  EATOM  =      1433.69555464
  Solvation  Ediel_sol  =         0.00000000
  ---------------------------------------------------
  free energy    TOTEN  =       -15.99417150 eV

  energy without entropy =      -15.89366235  energy(sigma->0) =      -15.94391692


--------------------------------------------------------------------------------------------------------




 average (electrostatic) potential at core
  the test charge radii are     1.1823  0.9406
  (the norm of the test charge is              1.0000)
       1 -52.1478       2-101.5263       3-101.8948       4 -98.8307
 
 
 
 E-fermi :  -5.4487     XC(G=0):  -1.1032     alpha+bet : -0.4609


 spin component 1

 k-point     1 :       0.1250    0.1250    0.1250
  band No.  band energies     occupation 
      1     -21.3100      1.00000
      2     -20.8019      1.00000
      3     -17.7910      1.00000
      4     -11.2107      1.00000
      5      -9.9240      1.00000
      6      -9.5666      1.00000
      7      -9.1246      1.00000
      8      -8.9057      1.00000
      9      -8.8426      1.00000
     10      -7.2215      1.00000
     11      -6.6476      1.00000
     12      -6.5732      1.00000
     13      -5.7795      0.99033
     14      -5.7649      0.98731
     15      -5.5626      0.78958
     16      -5.3339      0.20848
     17      -5.1793      0.02839
     18      -2.0354      0.00000
     19      -0.8693      0.00000
     20      -0.3441      0.00000
     21       0.2320      0.00000
     22       0.3639      0.00000
     23       0.8640      0.00000
     24       0.9770      0.00000
     25       1.0437      0.00000
     26       1.2456      0.00000
     27       1.4101      0.00000
     28       1.4895      0.00000
     29       1.5669      0.00000
     30       1.6450      0.00000
     31       1.8781      0.00000
     32       1.9636      0.00000

 k-point     2 :       0.3750    0.1250    0.1250
  band No.  band energies     occupation 
[...]
     26       1.3316      0.00000
     27       1.8099      0.00000
     28       1.9545      0.00000
     29       2.0613      0.00000
     30       2.2262      0.00000
     31       2.2798      0.00000
     32       2.3281      0.00000

 k-point    28 :      -0.1250   -0.3750    0.3750
  band No.  band energies     occupation 
      1     -21.4366      1.00000
      2     -20.5008      1.00000
      3     -19.0737      1.00000
      4     -10.9644      1.00000
      5      -9.9530      1.00000
      6      -9.5536      1.00000
      7      -8.9516      1.00000
      8      -8.5484      1.00000
      9      -8.4614      1.00000
     10      -8.2954      1.00000
     11      -7.0267      1.00000
     12      -6.8180      1.00000
     13      -3.6376      0.00002
     14      -3.2038      0.00000
     15      -3.0807      0.00000
     16      -2.8847      0.00000
     17      -2.8180      0.00000
     18      -0.0450      0.00000
     19       0.2046      0.00000
     20       0.3582      0.00000
     21       0.6909      0.00000
     22       0.7674      0.00000
     23       1.0475      0.00000
     24       1.2346      0.00000
     25       1.3531      0.00000
     26       1.4791      0.00000
     27       1.6439      0.00000
     28       1.7666      0.00000
     29       1.8427      0.00000
     30       1.9449      0.00000
     31       2.0615      0.00000
     32       2.1365      0.00000

 k-point    29 :       0.1250   -0.1250    0.3750
  band No.  band energies     occupation 
      1     -21.4366      1.00000
      2     -20.5008      1.00000
      3     -19.0737      1.00000
      4     -10.9645      1.00000
      5      -9.9529      1.00000
      6      -9.5535      1.00000
      7      -8.9515      1.00000
      8      -8.5482      1.00000
      9      -8.4613      1.00000
     10      -8.2954      1.00000
     11      -7.0267      1.00000
     12      -6.8180      1.00000
     13      -3.6377      0.00002
     14      -3.2039      0.00000
     15      -3.0799      0.00000
     16      -2.8841      0.00000
     17      -2.8173      0.00000
     18      -0.1438      0.00000
     19       0.1619      0.00000
     20       0.6043      0.00000
     21       0.6759      0.00000
     22       0.7764      0.00000
     23       1.1719      0.00000
     24       1.2146      0.00000
     25       1.2774      0.00000
     26       1.5384      0.00000
     27       1.6033      0.00000
     28       1.7126      0.00000
     29       1.8129      0.00000
     30       1.8605      0.00000
     31       1.9379      0.00000
     32       2.0958      0.00000

 k-point    30 :       0.3750   -0.1250    0.3750
  band No.  band energies     occupation 
      1     -21.4366      1.00000
      2     -20.5008      1.00000
      3     -19.0737      1.00000
      4     -10.9646      1.00000
      5      -9.9529      1.00000
      6      -9.5535      1.00000
      7      -8.9515      1.00000
      8      -8.5483      1.00000
      9      -8.4614      1.00000
     10      -8.2953      1.00000
     11      -7.0268      1.00000
     12      -6.8180      1.00000
     13      -3.6375      0.00002
     14      -3.2038      0.00000
     15      -3.0798      0.00000
     16      -2.8834      0.00000
     17      -2.8166      0.00000
     18      -0.0956      0.00000
     19       0.1896      0.00000
     20       0.3882      0.00000
     21       0.7012      0.00000
     22       0.8123      0.00000
     23       0.9711      0.00000
     24       1.2837      0.00000
     25       1.3313      0.00000
     26       1.4725      0.00000
     27       1.6810      0.00000
     28       1.6914      0.00000
     29       1.8490      0.00000
     30       1.9425      0.00000
     31       2.0883      0.00000
     32       2.1465      0.00000

 k-point    31 :      -0.3750   -0.1250    0.3750
  band No.  band energies     occupation 
      1     -21.4366      1.00000
      2     -20.5008      1.00000
      3     -19.0737      1.00000
      4     -10.9646      1.00000
      5      -9.9529      1.00000
      6      -9.5536      1.00000
      7      -8.9515      1.00000
      8      -8.5482      1.00000
      9      -8.4613      1.00000
     10      -8.2953      1.00000
     11      -7.0268      1.00000
     12      -6.8181      1.00000
     13      -3.6375      0.00002
     14      -3.2038      0.00000
     15      -3.0798      0.00000
     16      -2.8835      0.00000
     17      -2.8166      0.00000
     18      -0.0954      0.00000
     19       0.1923      0.00000
     20       0.3825      0.00000
     21       0.7031      0.00000
     22       0.8278      0.00000
     23       0.9525      0.00000
     24       1.2391      0.00000
     25       1.3612      0.00000
     26       1.5177      0.00000
     27       1.6625      0.00000
     28       1.6929      0.00000
     29       1.8263      0.00000
     30       1.9514      0.00000
     31       2.0798      0.00000
     32       2.2124      0.00000

 k-point    32 :      -0.1250   -0.1250    0.3750
  band No.  band energies     occupation 
      1     -21.4366      1.00000
      2     -20.5008      1.00000
      3     -19.0737      1.00000
      4     -10.9645      1.00000
      5      -9.9529      1.00000
      6      -9.5535      1.00000
      7      -8.9515      1.00000
      8      -8.5482      1.00000
      9      -8.4613      1.00000
     10      -8.2954      1.00000
     11      -7.0267      1.00000
     12      -6.8180      1.00000
     13      -3.6377      0.00002
     14      -3.2039      0.00000
     15      -3.0799      0.00000
     16      -2.8841      0.00000
     17      -2.8173      0.00000
     18      -0.1436      0.00000
     19       0.1629      0.00000
     20       0.6054      0.00000
     21       0.6577      0.00000
     22       0.7958      0.00000
     23       1.1797      0.00000
     24       1.2229      0.00000
     25       1.2731      0.00000
     26       1.4546      0.00000
     27       1.6054      0.00000
     28       1.7030      0.00000
     29       1.8793      0.00000
     30       1.9503      0.00000
     31       1.9664      0.00000
     32       2.0987      0.00000


--------------------------------------------------------------------------------------------------------


 soft charge-density along one line, spin component           1
         0         1         2         3         4         5         6         7         8         9
 total charge-density along one line
 
 soft charge-density along one line, spin component           2
         0         1         2         3         4         5         6         7         8         9
 total charge-density along one line
 
 pseudopotential strength for first ion, spin component:           1
 -9.382  -0.018  -0.002   0.004   0.000 -10.822  -0.021  -0.002
 -0.018  -9.349   0.006   0.003  -0.005  -0.021 -10.783   0.007
 -0.002   0.006  -9.354  -0.008   0.005  -0.002   0.007 -10.788
  0.004   0.003  -0.008  -9.362  -0.015   0.005   0.004  -0.010
  0.000  -0.005   0.005  -0.015  -9.382   0.000  -0.006   0.005
-10.822  -0.021  -0.002   0.005   0.000 -12.468  -0.024  -0.003
 -0.021 -10.783   0.007   0.004  -0.006  -0.024 -12.421   0.009
 -0.002   0.007 -10.788  -0.010   0.005  -0.003   0.009 -12.427
  0.005   0.004  -0.010 -10.798  -0.018   0.006   0.005  -0.012
  0.000  -0.006   0.005  -0.018 -10.822   0.000  -0.007   0.005
  0.000   0.001  -0.017   0.011  -0.009  -0.000   0.001  -0.020
  0.000   0.003  -0.029   0.019  -0.015  -0.000   0.003  -0.034
 -0.059  -0.011   0.028  -0.003   0.055  -0.069  -0.012   0.033
 -0.003  -0.026   0.002  -0.040   0.007  -0.003  -0.030   0.002
 -0.020  -0.003   0.038   0.004  -0.046  -0.023  -0.003   0.043
 -0.083  -0.019   0.042  -0.003   0.081  -0.096  -0.021   0.048
 -0.003  -0.043  -0.004  -0.058   0.009  -0.004  -0.050  -0.005
 -0.035  -0.003   0.052   0.000  -0.065  -0.041  -0.004   0.060
 pseudopotential strength for first ion, spin component:           2
 -9.232  -0.052  -0.012  -0.007   0.024 -10.642  -0.062  -0.014
 -0.052  -9.191   0.010  -0.002  -0.021  -0.062 -10.593   0.012
 -0.012   0.010  -9.176  -0.007   0.010  -0.014   0.012 -10.575
 -0.007  -0.002  -0.007  -9.152   0.003  -0.008  -0.002  -0.008
  0.024  -0.021   0.010   0.003  -9.250   0.029  -0.024   0.011
-10.642  -0.062  -0.014  -0.008   0.029 -12.252  -0.073  -0.016
 -0.062 -10.593   0.012  -0.002  -0.024  -0.073 -12.193   0.014
 -0.014   0.012 -10.575  -0.008   0.011  -0.016   0.014 -12.171
 -0.008  -0.002  -0.008 -10.546   0.003  -0.010  -0.003  -0.009
  0.029  -0.024   0.011   0.003 -10.664   0.034  -0.029   0.013
 -0.005  -0.005  -0.080   0.031  -0.041  -0.005  -0.006  -0.092
 -0.008  -0.009  -0.139   0.054  -0.072  -0.009  -0.011  -0.161
 -0.054  -0.009   0.030  -0.004   0.055  -0.063  -0.010   0.034
 -0.004  -0.025   0.009  -0.039   0.008  -0.005  -0.029   0.011
 -0.022  -0.004   0.034   0.007  -0.044  -0.026  -0.005   0.039
 -0.074  -0.014   0.044  -0.005   0.081  -0.086  -0.016   0.050
 -0.005  -0.043   0.008  -0.056   0.010  -0.006  -0.049   0.009
 -0.038  -0.005   0.047   0.005  -0.064  -0.044  -0.006   0.055
 total augmentation occupancy for first ion, spin component:           1
  8.841   1.598  -0.767   0.676  -1.856  -5.811  -1.183   0.591  -0.503   1.363   0.374  -0.084  -0.888  -0.031  -0.363  -0.005
  1.598   7.287  -0.332   0.488  -1.110  -1.196  -4.679   0.259  -0.368   0.800   0.468  -0.115  -0.753  -0.192  -0.031   0.024
 -0.767  -0.332   6.156  -0.168   5.621   0.572   0.268  -3.808   0.117  -4.168  -2.286   0.481   0.278   0.061   0.049   0.031
  0.676   0.488  -0.168   2.271  -0.915  -0.517  -0.365   0.127  -0.864   0.713   0.165  -0.007  -0.039  -0.084  -0.209  -0.006
 -1.856  -1.110   5.621  -0.915  14.800   1.372   0.822  -4.197   0.683 -10.284  -2.764   0.582   0.276   0.203   0.605   0.072
 -5.811  -1.196   0.572  -0.517   1.372   4.022   0.716  -0.493   0.341  -0.919  -0.242   0.077   0.626   0.015   0.242  -0.004
 -1.183  -4.679   0.268  -0.365   0.822   0.716   3.314  -0.181   0.260  -0.674  -0.388   0.075   0.533   0.147   0.025  -0.017
  0.591   0.259  -3.808   0.127  -4.197  -0.493  -0.181   2.706  -0.093   3.096   1.916  -0.348  -0.216  -0.023  -0.063  -0.016
 -0.503  -0.368   0.117  -0.864   0.683   0.341   0.260  -0.093   0.649  -0.486  -0.163   0.035   0.018   0.068   0.163   0.006
  1.363   0.800  -4.168   0.713 -10.284  -0.919  -0.674   3.096  -0.486   7.334   2.144  -0.433  -0.203  -0.151  -0.421  -0.047
  0.374   0.468  -2.286   0.165  -2.764  -0.242  -0.388   1.916  -0.163   2.144   2.013  -0.249  -0.147  -0.110  -0.043  -0.011
 -0.084  -0.115   0.481  -0.007   0.582   0.077   0.075  -0.348   0.035  -0.433  -0.249   0.060   0.027   0.026   0.010   0.001
 -0.888  -0.753   0.278  -0.039   0.276   0.626   0.533  -0.216   0.018  -0.203  -0.147   0.027   0.480   0.009  -0.006  -0.018
 -0.031  -0.192   0.061  -0.084   0.203   0.015   0.147  -0.023   0.068  -0.151  -0.110   0.026   0.009   0.089   0.006   0.001
 -0.363  -0.031   0.049  -0.209   0.605   0.242   0.025  -0.063   0.163  -0.421  -0.043   0.010  -0.006   0.006   0.164   0.005
 -0.005   0.024   0.031  -0.006   0.072  -0.004  -0.017  -0.016   0.006  -0.047  -0.011   0.001  -0.018   0.001   0.005   0.002
 -0.007  -0.004   0.008  -0.014   0.004   0.007  -0.000  -0.003  -0.001  -0.002   0.006  -0.002   0.002  -0.004   0.000   0.000
  0.013  -0.004   0.023   0.018  -0.056  -0.014   0.005  -0.008  -0.011   0.034  -0.010   0.000   0.003   0.000  -0.012  -0.000
 total augmentation occupancy for first ion, spin component:           2
 -0.122  -0.032   0.027  -0.045   0.022   0.236  -0.026  -0.013   0.008   0.005   0.038  -0.001   0.020  -0.004   0.006  -0.001
 -0.032   0.035  -0.039  -0.031   0.047  -0.038   0.186   0.007  -0.001  -0.068  -0.062   0.002   0.022   0.005  -0.002   0.002
  0.027  -0.039   0.664  -0.040  -0.204  -0.027   0.010   0.146   0.002   0.170   0.458   0.048  -0.021   0.040  -0.031   0.004
 -0.045  -0.031  -0.040   0.702   0.030  -0.006  -0.001   0.011   0.125   0.029  -0.042   0.021  -0.011   0.004   0.022   0.002
  0.022   0.047  -0.204   0.030  -0.309   0.006  -0.052   0.153  -0.015   0.360  -0.022   0.070  -0.007  -0.004  -0.010  -0.001
  0.236  -0.038  -0.027  -0.006   0.006  -0.083  -0.118  -0.037  -0.022   0.085   0.019   0.011  -0.011  -0.005  -0.016  -0.003
 -0.026   0.186   0.010  -0.001  -0.052  -0.118   0.036   0.038   0.003  -0.014   0.003  -0.012  -0.010   0.010   0.003   0.001
 -0.013   0.007   0.146   0.011   0.153  -0.037   0.038  -0.161   0.008  -0.154  -0.065  -0.018   0.003   0.006   0.003   0.002
  0.008  -0.001   0.002   0.125  -0.015  -0.022   0.003   0.008   0.022   0.027  -0.005   0.010  -0.002   0.005   0.005   0.000
  0.005  -0.068   0.170   0.029   0.360   0.085  -0.014  -0.154   0.027  -0.243   0.066  -0.032   0.013   0.004   0.005   0.001
  0.038  -0.062   0.458  -0.042  -0.022   0.019   0.003  -0.065  -0.005   0.066   0.398  -0.002  -0.003   0.025  -0.026   0.002
 -0.001   0.002   0.048   0.021   0.070   0.011  -0.012  -0.018   0.010  -0.032  -0.002   0.007   0.001   0.001   0.003   0.001
  0.020   0.022  -0.021  -0.011  -0.007  -0.011  -0.010   0.003  -0.002   0.013  -0.003   0.001   0.011  -0.001  -0.001  -0.002
 -0.004   0.005   0.040   0.004  -0.004  -0.005   0.010   0.006   0.005   0.004   0.025   0.001  -0.001   0.012  -0.001   0.001
  0.006  -0.002  -0.031   0.022  -0.010  -0.016   0.003   0.003   0.005   0.005  -0.026   0.003  -0.001  -0.001   0.009  -0.000
 -0.001   0.002   0.004   0.002  -0.001  -0.003   0.001   0.002   0.000   0.001   0.002   0.001  -0.002   0.001  -0.000   0.000
  0.002  -0.001  -0.000  -0.011  -0.003   0.001  -0.002   0.001  -0.003   0.002   0.004  -0.000  -0.000  -0.001  -0.001  -0.000
  0.000   0.003   0.007   0.002  -0.008  -0.004   0.001   0.002  -0.000   0.001   0.002  -0.000  -0.001   0.000  -0.001   0.000


------------------------ aborting loop because EDIFF is reached ----------------------------------------


    CHARGE:  cpu time    0.1487: real time    0.1492
    FORLOC:  cpu time    0.0016: real time    0.0016
    FORNL :  cpu time    0.3457: real time    0.3468
    STRESS:  cpu time    1.6735: real time    1.6791
    FORCOR:  cpu time    0.0557: real time    0.0559
    FORHAR:  cpu time    0.0058: real time    0.0059
    MIXING:  cpu time    0.0037: real time    0.0037
    OFIELD:  cpu time    0.0000: real time    0.0000

  FORCE on cell =-STRESS in cart. coord.  units (eV):
  Direction    XX          YY          ZZ          XY          YZ          ZX
  --------------------------------------------------------------------------------------
  Alpha Z     3.31229     3.31229     3.31229
  Ewald     132.57750   474.71625  -412.31461   -32.66209    20.19179    -2.64176
  Hartree   557.32532   710.96526   153.84541   -27.31741     7.20777    -3.90292
  E(xc)    -103.18200  -104.90111  -103.90566    -0.36567    -0.23483     0.09139
  Local   -1193.17289 -1671.00952  -259.93534    59.35747   -25.63062     8.56888
  n-local   225.62945   247.11769   225.13764     1.88505     0.06766     1.91747
  augment   -53.10958   -54.19351   -53.63613    -0.23432     0.20132    -0.35647
  Kinetic   426.66276   409.59723   447.38125     4.37138     0.21470    -1.81645
  Fock        0.00000     0.00000     0.00000     0.00000     0.00000     0.00000
  -------------------------------------------------------------------------------------
  Total      -3.95715    15.60457    -0.11516     5.03442     2.01779     1.86014
  in kB      -3.66901    14.46834    -0.10677     4.66784     1.87087     1.72470
  external pressure =        3.56 kB  Pullay stress =        0.00 kB


 VOLUME and BASIS-vectors are now :
 -----------------------------------------------------------------------------
  energy-cutoff  :      280.00
  volume of cell :     1728.00
      direct lattice vectors                 reciprocal lattice vectors
    12.000000000  0.000000000  0.000000000     0.083333333  0.000000000  0.000000000
     0.000000000 12.000000000  0.000000000     0.000000000  0.083333333  0.000000000
     0.000000000  0.000000000 12.000000000     0.000000000  0.000000000  0.083333333

  length of vectors
    12.000000000 12.000000000 12.000000000     0.083333333  0.083333333  0.083333333


 FORCES acting on ions
    electron-ion (+dipol)            ewald-force                    non-local-force                 convergence-correction
 -----------------------------------------------------------------------------------------------
   0.303E+02 -.447E+02 -.570E+02   -.269E+02 0.467E+02 0.564E+02   0.200E+01 0.346E+01 0.194E+01   0.622E-03 -.496E-05 0.205E-03
   0.938E+02 0.198E+03 0.279E+02   -.941E+02 -.200E+03 -.281E+02   -.242E+01 -.480E+01 -.128E+01   0.132E-02 0.402E-03 -.200E-03
   0.498E+02 -.176E+03 0.183E+02   -.497E+02 0.177E+03 -.185E+02   -.799E+00 -.137E+00 -.690E-01   0.919E-03 -.163E-03 -.486E-03
   -.168E+03 0.227E+02 0.937E+01   0.171E+03 -.236E+02 -.983E+01   -.512E+01 0.173E+01 0.887E+00   0.539E-03 -.168E-03 -.441E-03
 -----------------------------------------------------------------------------------------------
   0.634E+01 -.241E+00 -.148E+01   0.284E-13 -.391E-13 -.711E-14   -.635E+01 0.244E+00 0.148E+01   0.340E-02 0.657E-04 -.921E-03
 
 
 POSITION                                       TOTAL-FORCE (eV/Angst)
 -----------------------------------------------------------------------------------
      0.38117      0.76405      1.20983         5.448215      5.379104      1.308766
     -0.09430     10.85248      0.84771        -2.735242     -7.398278     -1.482851
     -0.03795      2.90229      0.87382        -0.698015      1.193580     -0.253294
      2.82684      0.11139      0.89626        -2.014958      0.825594      0.427379
 -----------------------------------------------------------------------------------
    total drift:                               -0.004543      0.003392     -0.002339


--------------------------------------------------------------------------------------------------------



  FREE ENERGIE OF THE ION-ELECTRON SYSTEM (eV)
  ---------------------------------------------------
  free  energy   TOTEN  =       -17.16749280 eV

  energy  without entropy=      -17.09428472  energy(sigma->0) =      -17.13088876
 
 d Force = 0.2818181E+02[-0.858E+00, 0.572E+02]  d Energy = 0.1233377E+02 0.158E+02
 d Force = 0.2241192E+03[ 0.184E+03, 0.264E+03]  d Ewald  = 0.2101763E+03 0.139E+02


--------------------------------------------------------------------------------------------------------


    POTLOK:  cpu time    0.0616: real time    0.0618


--------------------------------------------------------------------------------------------------------




--------------------------------------------------------------------------------------------------------


  
 reached required accuracy - stopping structural energy minimisation
 writing wavefunctions
     LOOP+:  cpu time   88.2233: real time   88.7388
    4ORBIT:  cpu time    0.0000: real time    0.0000

 total amount of memory used by VASP MPI-rank0   257290. kBytes
=======================================================================

   base      :      30000. kBytes
   nonl-proj :     170752. kBytes
   fftplans  :       2864. kBytes
   grid      :      15769. kBytes
   one-center:        124. kBytes
   wavefun   :      37781. kBytes
 
  
  
 General timing and accounting informations for this job:
 ========================================================
  
                  Total CPU time used (sec):      390.381
                            User time (sec):      376.034
                          System time (sec):       14.347
                         Elapsed time (sec):      393.001
  
                   Maximum memory used (kb):      426328.
                   Average memory used (kb):           0.
  
                          Minor page faults:       134469
                          Major page faults:           34
                 Voluntary context switches:        10848
