 vasp.5.4.4.18Apr17-6-g9f103f2a35 (build Jan 21 2021 13:12:21) complex          
  
 executed on             LinuxIFC date 2021.12.20  22:09:07
 running on   16 total cores
 distrk:  each k-point on   16 cores,    1 groups
 distr:  one band on NCORES_PER_BAND=   1 cores,   16 groups


--------------------------------------------------------------------------------------------------------


 INCAR:
 POTCAR:    PAW_PBE W 08Apr2002                   
 POTCAR:    PAW_PBE Cl 17Jan2003                  

 ----------------------------------------------------------------------------- 
|                                                                             |
|           W    W    AA    RRRRR   N    N  II  N    N   GGGG   !!!           |
|           W    W   A  A   R    R  NN   N  II  NN   N  G    G  !!!           |
|           W    W  A    A  R    R  N N  N  II  N N  N  G       !!!           |
|           W WW W  AAAAAA  RRRRR   N  N N  II  N  N N  G  GGG   !            |
|           WW  WW  A    A  R   R   N   NN  II  N   NN  G    G                |
|           W    W  A    A  R    R  N    N  II  N    N   GGGG   !!!           |
|                                                                             |
|      For optimal performance we recommend to set                            |
|        NCORE= 4 - approx SQRT( number of cores)                             |
|      NCORE specifies how many cores store one orbital (NPAR=cpu/NCORE).     |
|      This setting can  greatly improve the performance of VASP for DFT.     |
|      The default,   NCORE=1            might be grossly inefficient         |
|      on modern multi-core architectures or massively parallel machines.     |
|      Do your own testing !!!!                                               |
|      Unfortunately you need to use the default for GW and RPA calculations. |
|      (for HF NCORE is supported but not extensively tested yet)             |
|                                                                             |
 ----------------------------------------------------------------------------- 

 POTCAR:    PAW_PBE W 08Apr2002                   
   VRHFIN =W : 6s5d                                                             
   LEXCH  = PE                                                                  
   EATOM  =   204.6103 eV,   15.0384 Ry                                         
                                                                                
   TITEL  = PAW_PBE W 08Apr2002                                                 
   LULTRA =        F    use ultrasoft PP ?                                      
   IUNSCR =        1    unscreen: 0-lin 1-nonlin 2-no                           
   RPACOR =    2.330    partial core radius                                     
   POMASS =  183.850; ZVAL   =    6.000    mass and valenz                      
   RCORE  =    2.750    outmost cutoff radius                                   
   RWIGS  =    2.750; RWIGS  =    1.455    wigner-seitz radius (au A)           
   ENMAX  =  223.057; ENMIN  =  167.293 eV                                      
   RCLOC  =    2.147    cutoff for local pot                                    
   LCOR   =        T    correct aug charges                                     
   LPAW   =        T    paw PP                                                  
   EAUG   =  373.438                                                            
   DEXC   =    0.000                                                            
   RMAX   =    2.801    core radius for proj-oper                               
   RAUG   =    1.300    factor for augmentation sphere                          
   RDEP   =    2.886    radius for radial grids                                 
   RDEPT  =    2.230    core radius for aug-charge                              
                                                                                
   Atomic configuration                                                         
   16 entries                                                                   
     n  l   j            E        occ.                                          
     1  0  0.50    -69465.5836   2.0000                                         
     2  0  0.50    -11986.2642   2.0000                                         
     2  1  1.50    -10479.8616   6.0000                                         
     3  0  0.50     -2759.0758   2.0000                                         
     3  1  1.50     -2313.1857   6.0000                                         
     3  2  2.50     -1801.1185  10.0000                                         
     4  0  0.50      -567.6791   2.0000                                         
     4  1  1.50      -421.4694   6.0000                                         
     4  2  2.50      -236.3473  10.0000                                         
     4  3  3.50       -31.2666  14.0000                                         
     5  0  0.50       -77.1085   2.0000                                         
     5  1  1.50       -41.3856   6.0000                                         
     5  2  2.50        -3.3185   5.0000                                         
     6  0  0.50        -5.1438   1.0000                                         
     6  1  0.50        -3.8096   0.0000                                         
     5  3  2.50        -1.3606   0.0000                                         
   Description                                                                  
     l       E           TYP  RCUT    TYP  RCUT                                 
     2     -3.3185288     23  2.500                                             
     2     -1.5965414     23  2.500                                             
     0     -5.1438054     23  2.500                                             
     0      4.9117504     23  2.500                                             
     1      2.7211652     23  2.750                                             
     1     27.2116520     23  2.750                                             
  local pseudopotential read in
  partial core-charges read in
  partial kinetic energy density read in
  atomic valenz-charges read in
  non local Contribution for L=           2  read in
    real space projection operators read in
  non local Contribution for L=           2  read in
    real space projection operators read in
  non local Contribution for L=           0  read in
    real space projection operators read in
  non local Contribution for L=           0  read in
    real space projection operators read in
  non local Contribution for L=           1  read in
    real space projection operators read in
  non local Contribution for L=           1  read in
    real space projection operators read in
    PAW grid and wavefunctions read in
 
   number of l-projection  operators is LMAX  =           6
   number of lm-projection operators is LMMAX =          18
 
 POTCAR:    PAW_PBE Cl 17Jan2003                  
   VRHFIN =Cl: s2p5                                                             
   LEXCH  = PE                                                                  
   EATOM  =   409.7259 eV,   30.1140 Ry                                         
                                                                                
   TITEL  = PAW_PBE Cl 17Jan2003                                                
   LULTRA =        F    use ultrasoft PP ?                                      
   IUNSCR =        1    unscreen: 0-lin 1-nonlin 2-no                           
   RPACOR =    1.500    partial core radius                                     
   POMASS =   35.453; ZVAL   =    7.000    mass and valenz                      
   RCORE  =    1.900    outmost cutoff radius                                   
   RWIGS  =    2.100; RWIGS  =    1.111    wigner-seitz radius (au A)           
   ENMAX  =  280.000; ENMIN  =  196.854 eV                                      
   ICORE  =        2    local potential                                         
   LCOR   =        T    correct aug charges                                     
   LPAW   =        T    paw PP                                                  
   EAUG   =  356.192                                                            
   DEXC   =     .000                                                            
   RMAX   =    2.846    core radius for proj-oper                               
   RAUG   =    1.300    factor for augmentation sphere                          
   RDEP   =    2.020    radius for radial grids                                 
   QCUT   =   -4.392; QGAM   =    8.784    optimization parameters              
                                                                                
   Description                                                                  
     l     E      TYP  RCUT    TYP  RCUT                                        
     0   .000     23  1.900                                                     
     0   .000     23  1.900                                                     
     1   .000     23  1.900                                                     
     1   .000     23  1.900                                                     
     2   .000     23  1.900                                                     
  local pseudopotential read in
  partial core-charges read in
  atomic valenz-charges read in
  non local Contribution for L=           0  read in
    real space projection operators read in
  non local Contribution for L=           0  read in
    real space projection operators read in
  non local Contribution for L=           1  read in
    real space projection operators read in
  non local Contribution for L=           1  read in
    real space projection operators read in
    PAW grid and wavefunctions read in
 
   number of l-projection  operators is LMAX  =           4
   number of lm-projection operators is LMMAX =           8
 
  PAW_PBE W 08Apr2002                   :
 energy of atom  1       EATOM= -204.6103
 kinetic energy error for atom=    0.0205 (will be added to EATOM!!)
  PAW_PBE Cl 17Jan2003                  :
 energy of atom  2       EATOM= -409.7259
 kinetic energy error for atom=    0.0240 (will be added to EATOM!!)
 
 
 POSCAR: O dimer in a box                        
  positions in direct lattice
  velocities in cartesian coordinates
  No initial velocities read in
 exchange correlation table for  LEXCH =        8
   RHO(1)=    0.500       N(1)  =     2000
   RHO(2)=  100.500       N(2)  =     4000
 


--------------------------------------------------------------------------------------------------------


 ion  position               nearest neighbor table
   1  0.000  0.000  0.219-   2 2.26
   2  0.000  0.000  0.031-   1 2.26   3 2.66
   3  0.000  0.219  0.000-   2 2.66
 
  LATTYP: Found a simple cubic cell.
 ALAT       =    12.0000000000
  
  Lattice vectors:
  
 A1 = (  12.0000000000,   0.0000000000,   0.0000000000)
 A2 = (   0.0000000000,  12.0000000000,   0.0000000000)
 A3 = (   0.0000000000,   0.0000000000,  12.0000000000)


Analysis of symmetry for initial positions (statically):
=====================================================================
 Subroutine PRICEL returns:
 Original cell was already a primitive cell.
 

 Routine SETGRP: Setting up the symmetry group for a 
 simple cubic supercell.


 Subroutine GETGRP returns: Found  2 space group operations
 (whereof  2 operations were pure point group operations)
 out of a pool of 48 trial point group operations.


The static configuration has the point symmetry C_1h.


Analysis of symmetry for dynamics (positions and initial velocities):
=====================================================================
 Subroutine PRICEL returns:
 Original cell was already a primitive cell.
 

 Routine SETGRP: Setting up the symmetry group for a 
 simple cubic supercell.


 Subroutine GETGRP returns: Found  2 space group operations
 (whereof  2 operations were pure point group operations)
 out of a pool of 48 trial point group operations.


The dynamic configuration has the point symmetry C_1h.


Analysis of constrained symmetry for selective dynamics:
=====================================================================
 Subroutine PRICEL returns:
 Original cell was already a primitive cell.
 

 Routine SETGRP: Setting up the symmetry group for a 
 simple cubic supercell.


 Subroutine GETGRP returns: Found  2 space group operations
 (whereof  2 operations were pure point group operations)
 out of a pool of 48 trial point group operations.


The constrained configuration has the point symmetry C_1h.


Analysis of structural, dynamic, and magnetic symmetry:
=====================================================================
 Subroutine PRICEL returns:
 Original cell was already a primitive cell.
 

 Routine SETGRP: Setting up the symmetry group for a 
 simple cubic supercell.


 Subroutine GETGRP returns: Found  2 space group operations
 (whereof  2 operations were pure point group operations)
 out of a pool of 48 trial point group operations.


The magnetic configuration has the point symmetry C_1h.


 Subroutine INISYM returns: Found  2 space group operations
 (whereof  2 operations are pure point group operations),
 and found     1 'primitive' translations

 
 
 KPOINTS: Gamma-point only                        

Automatic generation of k-mesh.
Space group operators:
 irot       det(A)        alpha          n_x          n_y          n_z        tau_x        tau_y        tau_z
    1     1.000000     0.000000     1.000000     0.000000     0.000000     0.000000     0.000000     0.000000
    2    -1.000000   180.000000     1.000000     0.000000     0.000000     0.000000     0.000000     0.000000
 
 Subroutine IBZKPT returns following result:
 ===========================================
 
 Found     16 irreducible k-points:
 
 Following reciprocal coordinates:
            Coordinates               Weight
  0.125000  0.125000  0.125000      4.000000
  0.375000  0.125000  0.125000      4.000000
  0.125000  0.375000  0.125000      4.000000
  0.375000  0.375000  0.125000      4.000000
  0.125000 -0.375000  0.125000      4.000000
  0.375000 -0.375000  0.125000      4.000000
  0.125000 -0.125000  0.125000      4.000000
  0.375000 -0.125000  0.125000      4.000000
  0.125000  0.125000  0.375000      4.000000
  0.375000  0.125000  0.375000      4.000000
  0.125000  0.375000  0.375000      4.000000
  0.375000  0.375000  0.375000      4.000000
  0.125000 -0.375000  0.375000      4.000000
  0.375000 -0.375000  0.375000      4.000000
  0.125000 -0.125000  0.375000      4.000000
  0.375000 -0.125000  0.375000      4.000000
 
 Following cartesian coordinates:
            Coordinates               Weight
  0.010417  0.010417  0.010417      4.000000
  0.031250  0.010417  0.010417      4.000000
  0.010417  0.031250  0.010417      4.000000
  0.031250  0.031250  0.010417      4.000000
  0.010417 -0.031250  0.010417      4.000000
  0.031250 -0.031250  0.010417      4.000000
  0.010417 -0.010417  0.010417      4.000000
  0.031250 -0.010417  0.010417      4.000000
  0.010417  0.010417  0.031250      4.000000
  0.031250  0.010417  0.031250      4.000000
  0.010417  0.031250  0.031250      4.000000
  0.031250  0.031250  0.031250      4.000000
  0.010417 -0.031250  0.031250      4.000000
  0.031250 -0.031250  0.031250      4.000000
  0.010417 -0.010417  0.031250      4.000000
  0.031250 -0.010417  0.031250      4.000000
 


--------------------------------------------------------------------------------------------------------




 Dimension of arrays:
   k-points           NKPTS =     16   k-points in BZ     NKDIM =     16   number of bands    NBANDS=     16
   number of dos      NEDOS =    301   number of ions     NIONS =      3
   non local maximal  LDIM  =      6   non local SUM 2l+1 LMDIM =     18
   total plane-waves  NPLWV = 125000
   max r-space proj   IRMAX =      1   max aug-charges    IRDMAX=   4328
   dimension x,y,z NGX =    50 NGY =   50 NGZ =   50
   dimension x,y,z NGXF=   100 NGYF=  100 NGZF=  100
   support grid    NGXF=   100 NGYF=  100 NGZF=  100
   ions per type =               1   2
   NGX,Y,Z   is equivalent  to a cutoff of   6.93,  6.93,  6.93 a.u.
   NGXF,Y,Z  is equivalent  to a cutoff of  13.85, 13.85, 13.85 a.u.

 SYSTEM =  Te                                      
 POSCAR =  O dimer in a box                        

 Startparameter for this run:
   NWRITE =      2    write-flag & timer
   PREC   = normal    normal or accurate (medium, high low for compatibility)
   ISTART =      0    job   : 0-new  1-cont  2-samecut
   ICHARG =      2    charge: 1-file 2-atom 10-const
   ISPIN  =      2    spin polarized calculation?
   LNONCOLLINEAR =      F non collinear calculations
   LSORBIT =      F    spin-orbit coupling
   INIWAV =      1    electr: 0-lowe 1-rand  2-diag
   LASPH  =      F    aspherical Exc in radial PAW
   METAGGA=      F    non-selfconsistent MetaGGA calc.

 Electronic Relaxation 1
   ENCUT  =  280.0 eV  20.58 Ry    4.54 a.u.  16.37 16.37 16.37*2*pi/ulx,y,z
   ENINI  =  280.0     initial cutoff
   ENAUG  =  373.4 eV  augmentation charge cutoff
   NELM   =     60;   NELMIN=  2; NELMDL= -5     # of ELM steps 
   EDIFF  = 0.1E-03   stopping-criterion for ELM
   LREAL  =      F    real-space projection
   NLSPLINE    = F    spline interpolate recip. space projectors
   LCOMPAT=      F    compatible to vasp.4.4
   GGA_COMPAT  = T    GGA compatible to vasp.4.4-vasp.4.6
   LMAXPAW     = -100 max onsite density
   LMAXMIX     =    2 max onsite mixed and CHGCAR
   VOSKOWN=      0    Vosko Wilk Nusair interpolation
   ROPT   =    0.00000   0.00000
 Ionic relaxation
   EDIFFG = 0.1E-02   stopping-criterion for IOM
   NSW    =    100    number of steps for IOM
   NBLOCK =      1;   KBLOCK =    100    inner block; outer block 
   IBRION =      2    ionic relax: 0-MD 1-quasi-New 2-CG
   NFREE  =      1    steps in history (QN), initial steepest desc. (CG)
   ISIF   =      2    stress and relaxation
   IWAVPR =     11    prediction:  0-non 1-charg 2-wave 3-comb
   ISYM   =      2    0-nonsym 1-usesym 2-fastsym
   LCORR  =      T    Harris-Foulkes like correction to forces

   POTIM  = 0.5000    time-step for ionic-motion
   TEIN   =    0.0    initial temperature
   TEBEG  =    0.0;   TEEND  =   0.0 temperature during run
   SMASS  =  -3.00    Nose mass-parameter (am)
   estimated Nose-frequenzy (Omega)   =  0.10E-29 period in steps =****** mass=  -0.329E-26a.u.
   SCALEE = 1.0000    scale energy and forces
   NPACO  =    256;   APACO  = 16.0  distance and # of slots for P.C.
   PSTRESS=    0.0 pullay stress

  Mass of Ions in am
   POMASS = 183.85 35.45
  Ionic Valenz
   ZVAL   =   6.00  7.00
  Atomic Wigner-Seitz radii
   RWIGS  =  -1.00 -1.00
  virtual crystal weights 
   VCA    =   1.00  1.00
   NELECT =      20.0000    total number of electrons
   NUPDOWN=      -1.0000    fix difference up-down

 DOS related values:
   EMIN   =  10.00;   EMAX   =-10.00  energy-range for DOS
   EFERMI =   0.00
   ISMEAR =     0;   SIGMA  =   0.20  broadening in eV -4-tet -1-fermi 0-gaus

 Electronic relaxation 2 (details)
   IALGO  =     38    algorithm
   LDIAG  =      T    sub-space diagonalisation (order eigenvalues)
   LSUBROT=      F    optimize rotation matrix (better conditioning)
   TURBO    =      0    0=normal 1=particle mesh
   IRESTART =      0    0=no restart 2=restart with 2 vectors
   NREBOOT  =      0    no. of reboots
   NMIN     =      0    reboot dimension
   EREF     =   0.00    reference energy to select bands
   IMIX   =      4    mixing-type and parameters
     AMIX     =   0.40;   BMIX     =  1.00
     AMIX_MAG =   1.60;   BMIX_MAG =  1.00
     AMIN     =   0.10
     WC   =   100.;   INIMIX=   1;  MIXPRE=   1;  MAXMIX= -45

 Intra band minimization:
   WEIMIN = 0.0010     energy-eigenvalue tresh-hold
   EBREAK =  0.16E-05  absolut break condition
   DEPER  =   0.30     relativ break condition  

   TIME   =   0.40     timestep for ELM

  volume/ion in A,a.u.               =     576.00      3887.04
  Fermi-wavevector in a.u.,A,eV,Ry     =   0.370314  0.699792  1.865801  0.137133
  Thomas-Fermi vector in A             =   1.297595
 
 Write flags
   LWAVE        =      T    write WAVECAR
   LDOWNSAMPLE  =      F    k-point downsampling of WAVECAR
   LCHARG       =      T    write CHGCAR
   LVTOT        =      F    write LOCPOT, total local potential
   LVHAR        =      F    write LOCPOT, Hartree potential only
   LELF         =      F    write electronic localiz. function (ELF)
   LORBIT       =      0    0 simple, 1 ext, 2 COOP (PROOUT), +10 PAW based schemes


 Dipole corrections
   LMONO  =      F    monopole corrections only (constant potential shift)
   LDIPOL =      F    correct potential (dipole corrections)
   IDIPOL =      0    1-x, 2-y, 3-z, 4-all directions 
   EPSILON=  1.0000000 bulk dielectric constant

 Exchange correlation treatment:
   GGA     =    --    GGA type
   LEXCH   =     8    internal setting for exchange type
   VOSKOWN=      0    Vosko Wilk Nusair interpolation
   LHFCALC =     F    Hartree Fock is set to
   LHFONE  =     F    Hartree Fock one center treatment
   AEXX    =    0.0000 exact exchange contribution

 Linear response parameters
   LEPSILON=     F    determine dielectric tensor
   LRPA    =     F    only Hartree local field effects (RPA)
   LNABLA  =     F    use nabla operator in PAW spheres
   LVEL    =     F    velocity operator in full k-point grid
   LINTERFAST=   F  fast interpolation
   KINTER  =     0    interpolate to denser k-point grid
   CSHIFT  =0.1000    complex shift for real part using Kramers Kronig
   OMEGAMAX=  -1.0    maximum frequency
   DEG_THRESHOLD= 0.2000000E-02 threshold for treating states as degnerate
   RTIME   =   -0.100 relaxation time in fs
  (WPLASMAI=    0.000 imaginary part of plasma frequency in eV, 0.658/RTIME)
   DFIELD  = 0.0000000 0.0000000 0.0000000 field for delta impulse in time
 
 Orbital magnetization related:
   ORBITALMAG=     F  switch on orbital magnetization
   LCHIMAG   =     F  perturbation theory with respect to B field
   DQ        =  0.001000  dq finite difference perturbation B field
   LLRAUG    =     F  two centre corrections for induced B field



--------------------------------------------------------------------------------------------------------


 conjugate gradient relaxation of ions
   using selective dynamics as specified on POSCAR
 charge density and potential will be updated during run
 spin polarized calculation
 Variant of blocked Davidson
 Davidson routine will perform the subspace rotation
 perform sub-space diagonalisation
    after iterative eigenvector-optimisation
 modified Broyden-mixing scheme, WC =      100.0
 initial mixing is a Kerker type mixing with AMIX =  0.4000 and BMIX =      1.0000
 Hartree-type preconditioning will be used
 using additional bands            6
 reciprocal scheme for non local part
 use partial core corrections
 calculate Harris-corrections to forces 
   (improved forces if not selfconsistent)
 use gradient corrections 
 use of overlap-Matrix (Vanderbilt PP)
 Gauss-broadening in eV      SIGMA  =   0.20


--------------------------------------------------------------------------------------------------------


  energy-cutoff  :      280.00
  volume of cell :     1728.00
      direct lattice vectors                 reciprocal lattice vectors
    12.000000000  0.000000000  0.000000000     0.083333333  0.000000000  0.000000000
     0.000000000 12.000000000  0.000000000     0.000000000  0.083333333  0.000000000
     0.000000000  0.000000000 12.000000000     0.000000000  0.000000000  0.083333333

  length of vectors
    12.000000000 12.000000000 12.000000000     0.083333333  0.083333333  0.083333333


 
 k-points in units of 2pi/SCALE and weight: Gamma-point only                        
   0.01041667  0.01041667  0.01041667       0.062
   0.03125000  0.01041667  0.01041667       0.062
   0.01041667  0.03125000  0.01041667       0.062
   0.03125000  0.03125000  0.01041667       0.062
   0.01041667 -0.03125000  0.01041667       0.062
   0.03125000 -0.03125000  0.01041667       0.062
   0.01041667 -0.01041667  0.01041667       0.062
   0.03125000 -0.01041667  0.01041667       0.062
   0.01041667  0.01041667  0.03125000       0.062
   0.03125000  0.01041667  0.03125000       0.062
   0.01041667  0.03125000  0.03125000       0.062
   0.03125000  0.03125000  0.03125000       0.062
   0.01041667 -0.03125000  0.03125000       0.062
   0.03125000 -0.03125000  0.03125000       0.062
   0.01041667 -0.01041667  0.03125000       0.062
   0.03125000 -0.01041667  0.03125000       0.062
 
 k-points in reciprocal lattice and weights: Gamma-point only                        
   0.12500000  0.12500000  0.12500000       0.062
   0.37500000  0.12500000  0.12500000       0.062
   0.12500000  0.37500000  0.12500000       0.062
   0.37500000  0.37500000  0.12500000       0.062
   0.12500000 -0.37500000  0.12500000       0.062
   0.37500000 -0.37500000  0.12500000       0.062
   0.12500000 -0.12500000  0.12500000       0.062
   0.37500000 -0.12500000  0.12500000       0.062
   0.12500000  0.12500000  0.37500000       0.062
   0.37500000  0.12500000  0.37500000       0.062
   0.12500000  0.37500000  0.37500000       0.062
   0.37500000  0.37500000  0.37500000       0.062
   0.12500000 -0.37500000  0.37500000       0.062
   0.37500000 -0.37500000  0.37500000       0.062
   0.12500000 -0.12500000  0.37500000       0.062
   0.37500000 -0.12500000  0.37500000       0.062
 
 position of ions in fractional coordinates (direct lattice) 
   0.00000000  0.00000000  0.21918455
   0.00000000  0.00000000  0.03081545
   0.00000000  0.21918455  0.00000000
 
 position of ions in cartesian coordinates  (Angst):
   0.00000000  0.00000000  2.63021454
   0.00000000  0.00000000  0.36978546
   0.00000000  2.63021454  0.00000000
 


--------------------------------------------------------------------------------------------------------


 k-point  1 :   0.1250 0.1250 0.1250  plane waves:   18382
 k-point  2 :   0.3750 0.1250 0.1250  plane waves:   18373
 k-point  3 :   0.1250 0.3750 0.1250  plane waves:   18373
 k-point  4 :   0.3750 0.3750 0.1250  plane waves:   18391
 k-point  5 :   0.1250-0.3750 0.1250  plane waves:   18373
 k-point  6 :   0.3750-0.3750 0.1250  plane waves:   18391
 k-point  7 :   0.1250-0.1250 0.1250  plane waves:   18382
 k-point  8 :   0.3750-0.1250 0.1250  plane waves:   18373
 k-point  9 :   0.1250 0.1250 0.3750  plane waves:   18373
 k-point 10 :   0.3750 0.1250 0.3750  plane waves:   18391
 k-point 11 :   0.1250 0.3750 0.3750  plane waves:   18391
 k-point 12 :   0.3750 0.3750 0.3750  plane waves:   18352
 k-point 13 :   0.1250-0.3750 0.3750  plane waves:   18391
 k-point 14 :   0.3750-0.3750 0.3750  plane waves:   18352
 k-point 15 :   0.1250-0.1250 0.3750  plane waves:   18373
 k-point 16 :   0.3750-0.1250 0.3750  plane waves:   18391

 maximum and minimum number of plane-waves per node :     18391    18352

 maximum number of plane-waves:     18391
 maximum index in each direction: 
   IXMAX=   16   IYMAX=   16   IZMAX=   16
   IXMIN=  -16   IYMIN=  -16   IZMIN=  -16


 serial   3D FFT for wavefunctions
 parallel 3D FFT for charge:
    minimum data exchange during FFTs selected (reduces bandwidth)


 total amount of memory used by VASP MPI-rank0   143841. kBytes
=======================================================================

   base      :      30000. kBytes
   nonl-proj :      85670. kBytes
   fftplans  :       2864. kBytes
   grid      :      15769. kBytes
   one-center:         93. kBytes
   wavefun   :       9445. kBytes
 
     INWAV:  cpu time    0.0001: real time    0.0001
 Broyden mixing: mesh for mixing (old mesh)
   NGX = 33   NGY = 33   NGZ = 33
  (NGX  =100   NGY  =100   NGZ  =100)
  gives a total of  35937 points

 initial charge density was supplied:
 charge density of overlapping atoms calculated
 number of electron      20.0000000 magnetization       3.0000000
 keeping initial charge density in first step


--------------------------------------------------------------------------------------------------------


 Maximum index for augmentation-charges          551 (set IRDMAX)


--------------------------------------------------------------------------------------------------------


 First call to EWALD:  gamma=   0.148
 Maximum number of real-space cells 3x 3x 3
 Maximum number of reciprocal cells 3x 3x 3

    FEWALD:  cpu time    0.0010: real time    0.0010


--------------------------------------- Iteration      1(   1)  ---------------------------------------


    POTLOK:  cpu time    0.0635: real time    0.0673
    SETDIJ:  cpu time    0.0037: real time    0.0037
     EDDAV:  cpu time    0.8703: real time    0.8935
       DOS:  cpu time    0.0005: real time    0.0005
    --------------------------------------------
      LOOP:  cpu time    0.9380: real time    0.9651

 eigenvalue-minimisations  :  1504
 total energy-change (2. order) : 0.8169536E+02  (-0.3273526E+03)
 number of electron      20.0000000 magnetization       3.0000000
 augmentation part       20.0000000 magnetization       3.0000000

 Free energy of the ion-electron system (eV)
  ---------------------------------------------------
  alpha Z        PSCENC =         2.10433961
  Ewald energy   TEWEN  =        34.98228288
  -Hartree energ DENC   =      -916.05455711
  -exchange      EXHF   =         0.00000000
  -V(xc)+E(xc)   XCENC  =       -10.57745531
  PAW double counting   =       638.63906183     -579.72293787
  entropy T*S    EENTRO =        -0.13848136
  eigenvalues    EBANDS =      -111.53053251
  atomic energy  EATOM  =      1023.99363498
  Solvation  Ediel_sol  =         0.00000000
  ---------------------------------------------------
  free energy    TOTEN  =        81.69535512 eV

  energy without entropy =       81.83383649  energy(sigma->0) =       81.76459580


--------------------------------------------------------------------------------------------------------




--------------------------------------- Iteration      1(   2)  ---------------------------------------


     EDDAV:  cpu time    1.1331: real time    1.1432
       DOS:  cpu time    0.0006: real time    0.0006
    --------------------------------------------
      LOOP:  cpu time    1.1337: real time    1.1437

 eigenvalue-minimisations  :  2016
 total energy-change (2. order) :-0.8451175E+02  (-0.8368723E+02)
 number of electron      20.0000000 magnetization       3.0000000
 augmentation part       20.0000000 magnetization       3.0000000

 Free energy of the ion-electron system (eV)
  ---------------------------------------------------
  alpha Z        PSCENC =         2.10433961
  Ewald energy   TEWEN  =        34.98228288
  -Hartree energ DENC   =      -916.05455711
  -exchange      EXHF   =         0.00000000
  -V(xc)+E(xc)   XCENC  =       -10.57745531
  PAW double counting   =       638.63906183     -579.72293787
  entropy T*S    EENTRO =        -0.08441649
  eigenvalues    EBANDS =      -196.09634940
  atomic energy  EATOM  =      1023.99363498
  Solvation  Ediel_sol  =         0.00000000
  ---------------------------------------------------
  free energy    TOTEN  =        -2.81639690 eV

  energy without entropy =       -2.73198040  energy(sigma->0) =       -2.77418865


--------------------------------------------------------------------------------------------------------




--------------------------------------- Iteration      1(   3)  ---------------------------------------


     EDDAV:  cpu time    1.1608: real time    1.1692
       DOS:  cpu time    0.0005: real time    0.0005
    --------------------------------------------
      LOOP:  cpu time    1.1612: real time    1.1696

 eigenvalue-minimisations  :  2048
 total energy-change (2. order) :-0.9524191E+01  (-0.9362506E+01)
 number of electron      20.0000000 magnetization       3.0000000
 augmentation part       20.0000000 magnetization       3.0000000

 Free energy of the ion-electron system (eV)
  ---------------------------------------------------
  alpha Z        PSCENC =         2.10433961
  Ewald energy   TEWEN  =        34.98228288
  -Hartree energ DENC   =      -916.05455711
  -exchange      EXHF   =         0.00000000
  -V(xc)+E(xc)   XCENC  =       -10.57745531
  PAW double counting   =       638.63906183     -579.72293787
  entropy T*S    EENTRO =        -0.15918357
  eigenvalues    EBANDS =      -205.54577363
  atomic energy  EATOM  =      1023.99363498
  Solvation  Ediel_sol  =         0.00000000
  ---------------------------------------------------
  free energy    TOTEN  =       -12.34058820 eV

  energy without entropy =      -12.18140463  energy(sigma->0) =      -12.26099641


--------------------------------------------------------------------------------------------------------




--------------------------------------- Iteration      1(   4)  ---------------------------------------


     EDDAV:  cpu time    0.6384: real time    0.6428
       DOS:  cpu time    0.0004: real time    0.0004
    --------------------------------------------
      LOOP:  cpu time    0.6389: real time    0.6432

 eigenvalue-minimisations  :  1040
 total energy-change (2. order) :-0.1835909E+00  (-0.1558402E+00)
 number of electron      20.0000000 magnetization       3.0000000
 augmentation part       20.0000000 magnetization       3.0000000

 Free energy of the ion-electron system (eV)
  ---------------------------------------------------
  alpha Z        PSCENC =         2.10433961
  Ewald energy   TEWEN  =        34.98228288
  -Hartree energ DENC   =      -916.05455711
  -exchange      EXHF   =         0.00000000
  -V(xc)+E(xc)   XCENC  =       -10.57745531
  PAW double counting   =       638.63906183     -579.72293787
  entropy T*S    EENTRO =        -0.21218919
  eigenvalues    EBANDS =      -205.67635890
  atomic energy  EATOM  =      1023.99363498
  Solvation  Ediel_sol  =         0.00000000
  ---------------------------------------------------
  free energy    TOTEN  =       -12.52417909 eV

  energy without entropy =      -12.31198990  energy(sigma->0) =      -12.41808449


--------------------------------------------------------------------------------------------------------




--------------------------------------- Iteration      1(   5)  ---------------------------------------


     EDDAV:  cpu time    0.8643: real time    0.8681
       DOS:  cpu time    0.0004: real time    0.0004
    CHARGE:  cpu time    0.0735: real time    0.0750
    MIXING:  cpu time    0.0014: real time    0.0014
    --------------------------------------------
      LOOP:  cpu time    0.9396: real time    0.9450

 eigenvalue-minimisations  :  1536
 total energy-change (2. order) :-0.1079859E-01  (-0.1070912E-01)
 number of electron      20.0000096 magnetization       2.6549635
 augmentation part       -1.5836815 magnetization       0.9880895

 Broyden mixing:
  rms(total) = 0.11399E+01    rms(broyden)= 0.11397E+01
  rms(prec ) = 0.14990E+01
  weight for this iteration     100.00

 Free energy of the ion-electron system (eV)
  ---------------------------------------------------
  alpha Z        PSCENC =         2.10433961
  Ewald energy   TEWEN  =        34.98228288
  -Hartree energ DENC   =      -916.05455711
  -exchange      EXHF   =         0.00000000
  -V(xc)+E(xc)   XCENC  =       -10.57745531
  PAW double counting   =       638.63906183     -579.72293787
  entropy T*S    EENTRO =        -0.21304277
  eigenvalues    EBANDS =      -205.68630391
  atomic energy  EATOM  =      1023.99363498
  Solvation  Ediel_sol  =         0.00000000
  ---------------------------------------------------
  free energy    TOTEN  =       -12.53497768 eV

  energy without entropy =      -12.32193491  energy(sigma->0) =      -12.42845630


--------------------------------------------------------------------------------------------------------




--------------------------------------- Iteration      1(   6)  ---------------------------------------


    POTLOK:  cpu time    0.0597: real time    0.0602
    SETDIJ:  cpu time    0.0035: real time    0.0035
     EDDAV:  cpu time    0.6396: real time    0.6439
       DOS:  cpu time    0.0004: real time    0.0004
    CHARGE:  cpu time    0.0716: real time    0.0727
    MIXING:  cpu time    0.0017: real time    0.0064
    --------------------------------------------
      LOOP:  cpu time    0.7766: real time    0.7870

 eigenvalue-minimisations  :  1056
 total energy-change (2. order) : 0.5067157E+01  (-0.2831071E+01)
 number of electron      20.0000083 magnetization       2.8776385
 augmentation part       -0.9240478 magnetization      -0.0631392

 Broyden mixing:
  rms(total) = 0.76791E+00    rms(broyden)= 0.76725E+00
  rms(prec ) = 0.96803E+00
  weight for this iteration     100.00

 eigenvalues of (default mixing * dielectric matrix)
  average eigenvalue GAMMA=   0.6814
  0.6814

 Free energy of the ion-electron system (eV)
  ---------------------------------------------------
  alpha Z        PSCENC =         2.10433961
  Ewald energy   TEWEN  =        34.98228288
  -Hartree energ DENC   =      -923.06113622
  -exchange      EXHF   =         0.00000000
  -V(xc)+E(xc)   XCENC  =        -7.27390144
  PAW double counting   =       680.29838652     -622.30816065
  entropy T*S    EENTRO =        -0.09261102
  eigenvalues    EBANDS =      -196.11065492
  atomic energy  EATOM  =      1023.99363498
  Solvation  Ediel_sol  =         0.00000000
  ---------------------------------------------------
  free energy    TOTEN  =        -7.46782026 eV

  energy without entropy =       -7.37520925  energy(sigma->0) =       -7.42151475


--------------------------------------------------------------------------------------------------------




--------------------------------------- Iteration      1(   7)  ---------------------------------------


    POTLOK:  cpu time    0.0586: real time    0.0589
    SETDIJ:  cpu time    0.0031: real time    0.0031
     EDDAV:  cpu time    0.6298: real time    0.6342
       DOS:  cpu time    0.0004: real time    0.0004
    CHARGE:  cpu time    0.0729: real time    0.0735
    MIXING:  cpu time    0.0017: real time    0.0027
    --------------------------------------------
      LOOP:  cpu time    0.7666: real time    0.7729

 eigenvalue-minimisations  :  1024
 total energy-change (2. order) : 0.2748793E-01  (-0.1449927E+01)
 number of electron      20.0000088 magnetization       3.2131500
 augmentation part       -1.1949132 magnetization      -0.0271085

 Broyden mixing:
  rms(total) = 0.47092E+00    rms(broyden)= 0.47036E+00
  rms(prec ) = 0.62581E+00
  weight for this iteration     100.00

 eigenvalues of (default mixing * dielectric matrix)
  average eigenvalue GAMMA=   0.8667
  1.1699  0.5636

 Free energy of the ion-electron system (eV)
  ---------------------------------------------------
  alpha Z        PSCENC =         2.10433961
  Ewald energy   TEWEN  =        34.98228288
  -Hartree energ DENC   =      -920.97069133
  -exchange      EXHF   =         0.00000000
  -V(xc)+E(xc)   XCENC  =        -6.81958064
  PAW double counting   =       695.91311279     -637.72349201
  entropy T*S    EENTRO =        -0.06764163
  eigenvalues    EBANDS =      -198.85229698
  atomic energy  EATOM  =      1023.99363498
  Solvation  Ediel_sol  =         0.00000000
  ---------------------------------------------------
  free energy    TOTEN  =        -7.44033234 eV

  energy without entropy =       -7.37269071  energy(sigma->0) =       -7.40651152


--------------------------------------------------------------------------------------------------------




--------------------------------------- Iteration      1(   8)  ---------------------------------------


    POTLOK:  cpu time    0.0593: real time    0.0596
    SETDIJ:  cpu time    0.0031: real time    0.0031
     EDDAV:  cpu time    0.6255: real time    0.6288
       DOS:  cpu time    0.0004: real time    0.0004
    CHARGE:  cpu time    0.0701: real time    0.0711
    MIXING:  cpu time    0.0013: real time    0.0013
    --------------------------------------------
      LOOP:  cpu time    0.7597: real time    0.7643

 eigenvalue-minimisations  :  1024
 total energy-change (2. order) : 0.1149329E+01  (-0.2346488E+00)
 number of electron      20.0000088 magnetization       3.5610698
 augmentation part       -1.0951722 magnetization       0.2975378

 Broyden mixing:
  rms(total) = 0.24391E+00    rms(broyden)= 0.24380E+00
  rms(prec ) = 0.31023E+00
  weight for this iteration     100.00

 eigenvalues of (default mixing * dielectric matrix)
  average eigenvalue GAMMA=   0.8885
  1.3947  0.8142  0.4566

 Free energy of the ion-electron system (eV)
  ---------------------------------------------------
  alpha Z        PSCENC =         2.10433961
  Ewald energy   TEWEN  =        34.98228288
  -Hartree energ DENC   =      -927.24403179
  -exchange      EXHF   =         0.00000000
  -V(xc)+E(xc)   XCENC  =        -4.89742952
  PAW double counting   =       720.36386243     -662.23092438
  entropy T*S    EENTRO =        -0.01094029
  eigenvalues    EBANDS =      -193.35179696
  atomic energy  EATOM  =      1023.99363498
  Solvation  Ediel_sol  =         0.00000000
  ---------------------------------------------------
  free energy    TOTEN  =        -6.29100304 eV

  energy without entropy =       -6.28006275  energy(sigma->0) =       -6.28553290


--------------------------------------------------------------------------------------------------------




--------------------------------------- Iteration      1(   9)  ---------------------------------------


    POTLOK:  cpu time    0.0585: real time    0.0588
    SETDIJ:  cpu time    0.0031: real time    0.0031
     EDDAV:  cpu time    0.6683: real time    0.6719
       DOS:  cpu time    0.0005: real time    0.0005
    CHARGE:  cpu time    0.0693: real time    0.0696
    MIXING:  cpu time    0.0019: real time    0.0026
    --------------------------------------------
      LOOP:  cpu time    0.8016: real time    0.8065

 eigenvalue-minimisations  :  1120
 total energy-change (2. order) :-0.1408561E+01  (-0.1957561E+00)
 number of electron      20.0000090 magnetization       3.7788039
 augmentation part       -1.0861996 magnetization       0.5472007

 Broyden mixing:
  rms(total) = 0.19914E+00    rms(broyden)= 0.19861E+00
  rms(prec ) = 0.22738E+00
  weight for this iteration     100.00

 eigenvalues of (default mixing * dielectric matrix)
  average eigenvalue GAMMA=   0.9517
  1.7690  0.4937  0.7720  0.7720

 Free energy of the ion-electron system (eV)
  ---------------------------------------------------
  alpha Z        PSCENC =         2.10433961
  Ewald energy   TEWEN  =        34.98228288
  -Hartree energ DENC   =      -931.99445559
  -exchange      EXHF   =         0.00000000
  -V(xc)+E(xc)   XCENC  =        -5.67289796
  PAW double counting   =       740.06401257     -681.86315555
  entropy T*S    EENTRO =        -0.00756331
  eigenvalues    EBANDS =      -189.30576153
  atomic energy  EATOM  =      1023.99363498
  Solvation  Ediel_sol  =         0.00000000
  ---------------------------------------------------
  free energy    TOTEN  =        -7.69956389 eV

  energy without entropy =       -7.69200058  energy(sigma->0) =       -7.69578224


--------------------------------------------------------------------------------------------------------




--------------------------------------- Iteration      1(  10)  ---------------------------------------


    POTLOK:  cpu time    0.0586: real time    0.0589
    SETDIJ:  cpu time    0.0031: real time    0.0031
     EDDAV:  cpu time    0.7464: real time    0.7502
       DOS:  cpu time    0.0004: real time    0.0004
    CHARGE:  cpu time    0.0682: real time    0.0684
    MIXING:  cpu time    0.0018: real time    0.0018
    --------------------------------------------
      LOOP:  cpu time    0.8784: real time    0.8827

 eigenvalue-minimisations  :  1280
 total energy-change (2. order) :-0.5491748E+00  (-0.3808182E-01)
 number of electron      20.0000091 magnetization       3.8930311
 augmentation part       -1.0954344 magnetization       0.6696145

 Broyden mixing:
  rms(total) = 0.11905E+00    rms(broyden)= 0.11885E+00
  rms(prec ) = 0.14326E+00
  weight for this iteration     100.00

 eigenvalues of (default mixing * dielectric matrix)
  average eigenvalue GAMMA=   1.0731
  2.1394  1.0388  1.0388  0.4975  0.6510

 Free energy of the ion-electron system (eV)
  ---------------------------------------------------
  alpha Z        PSCENC =         2.10433961
  Ewald energy   TEWEN  =        34.98228288
  -Hartree energ DENC   =      -933.54371774
  -exchange      EXHF   =         0.00000000
  -V(xc)+E(xc)   XCENC  =        -5.75000576
  PAW double counting   =       755.08164380     -696.83335296
  entropy T*S    EENTRO =        -0.00610959
  eigenvalues    EBANDS =      -188.27745394
  atomic energy  EATOM  =      1023.99363498
  Solvation  Ediel_sol  =         0.00000000
  ---------------------------------------------------
  free energy    TOTEN  =        -8.24873871 eV

  energy without entropy =       -8.24262913  energy(sigma->0) =       -8.24568392


--------------------------------------------------------------------------------------------------------




--------------------------------------- Iteration      1(  11)  ---------------------------------------


    POTLOK:  cpu time    0.0589: real time    0.0592
    SETDIJ:  cpu time    0.0032: real time    0.0032
     EDDAV:  cpu time    0.6185: real time    0.6213
       DOS:  cpu time    0.0004: real time    0.0004
    CHARGE:  cpu time    0.0689: real time    0.0692
    MIXING:  cpu time    0.0015: real time    0.0015
    --------------------------------------------
      LOOP:  cpu time    0.7514: real time    0.7548

 eigenvalue-minimisations  :  1024
 total energy-change (2. order) :-0.9554507E+00  (-0.5366117E-01)
 number of electron      20.0000091 magnetization       3.9142387
 augmentation part       -1.1221261 magnetization       0.6739481

 Broyden mixing:
  rms(total) = 0.71994E-01    rms(broyden)= 0.71957E-01
  rms(prec ) = 0.88466E-01
  weight for this iteration     100.00

 eigenvalues of (default mixing * dielectric matrix)
  average eigenvalue GAMMA=   1.0180
  1.6186  1.2626  1.2626  0.4806  0.7999  0.6835

 Free energy of the ion-electron system (eV)
  ---------------------------------------------------
  alpha Z        PSCENC =         2.10433961
  Ewald energy   TEWEN  =        34.98228288
  -Hartree energ DENC   =      -933.35619325
  -exchange      EXHF   =         0.00000000
  -V(xc)+E(xc)   XCENC  =        -6.53628601
  PAW double counting   =       764.51793293     -706.24094459
  entropy T*S    EENTRO =        -0.00932726
  eigenvalues    EBANDS =      -188.65962869
  atomic energy  EATOM  =      1023.99363498
  Solvation  Ediel_sol  =         0.00000000
  ---------------------------------------------------
  free energy    TOTEN  =        -9.20418941 eV

  energy without entropy =       -9.19486215  energy(sigma->0) =       -9.19952578


--------------------------------------------------------------------------------------------------------




--------------------------------------- Iteration      1(  12)  ---------------------------------------


    POTLOK:  cpu time    0.0588: real time    0.0592
    SETDIJ:  cpu time    0.0032: real time    0.0032
     EDDAV:  cpu time    0.6834: real time    0.6868
       DOS:  cpu time    0.0004: real time    0.0004
    CHARGE:  cpu time    0.0700: real time    0.0708
    MIXING:  cpu time    0.0017: real time    0.0017
    --------------------------------------------
      LOOP:  cpu time    0.8175: real time    0.8221

 eigenvalue-minimisations  :  1152
 total energy-change (2. order) :-0.7262747E+00  (-0.1977126E-01)
 number of electron      20.0000091 magnetization       3.9577098
 augmentation part       -1.1277155 magnetization       0.7079851

 Broyden mixing:
  rms(total) = 0.40228E-01    rms(broyden)= 0.40217E-01
  rms(prec ) = 0.62851E-01
  weight for this iteration     100.00

 eigenvalues of (default mixing * dielectric matrix)
  average eigenvalue GAMMA=   1.0957
  1.6705  1.6705  1.4614  0.9026  0.9026  0.4880  0.5744

 Free energy of the ion-electron system (eV)
  ---------------------------------------------------
  alpha Z        PSCENC =         2.10433961
  Ewald energy   TEWEN  =        34.98228288
  -Hartree energ DENC   =      -932.57198547
  -exchange      EXHF   =         0.00000000
  -V(xc)+E(xc)   XCENC  =        -7.28146124
  PAW double counting   =       765.03330980     -706.75685992
  entropy T*S    EENTRO =        -0.00961554
  eigenvalues    EBANDS =      -189.42410916
  atomic energy  EATOM  =      1023.99363498
  Solvation  Ediel_sol  =         0.00000000
  ---------------------------------------------------
  free energy    TOTEN  =        -9.93046407 eV

  energy without entropy =       -9.92084853  energy(sigma->0) =       -9.92565630


--------------------------------------------------------------------------------------------------------




--------------------------------------- Iteration      1(  13)  ---------------------------------------


    POTLOK:  cpu time    0.0586: real time    0.0588
    SETDIJ:  cpu time    0.0031: real time    0.0031
     EDDAV:  cpu time    0.7508: real time    0.7547
       DOS:  cpu time    0.0004: real time    0.0004
    CHARGE:  cpu time    0.0674: real time    0.0677
    MIXING:  cpu time    0.0019: real time    0.0019
    --------------------------------------------
      LOOP:  cpu time    0.8822: real time    0.8865

 eigenvalue-minimisations  :  1280
 total energy-change (2. order) :-0.3338704E+00  (-0.1048912E-01)
 number of electron      20.0000091 magnetization       3.9842068
 augmentation part       -1.1180807 magnetization       0.7416786

 Broyden mixing:
  rms(total) = 0.31901E-01    rms(broyden)= 0.31870E-01
  rms(prec ) = 0.42953E-01
  weight for this iteration     100.00

 eigenvalues of (default mixing * dielectric matrix)
  average eigenvalue GAMMA=   1.1011
  2.2946  1.5196  1.5196  0.8165  0.8165  0.4934  0.7342  0.6146

 Free energy of the ion-electron system (eV)
  ---------------------------------------------------
  alpha Z        PSCENC =         2.10433961
  Ewald energy   TEWEN  =        34.98228288
  -Hartree energ DENC   =      -931.91955338
  -exchange      EXHF   =         0.00000000
  -V(xc)+E(xc)   XCENC  =        -7.59179143
  PAW double counting   =       765.49966670     -707.22485957
  entropy T*S    EENTRO =        -0.00653851
  eigenvalues    EBANDS =      -190.10151571
  atomic energy  EATOM  =      1023.99363498
  Solvation  Ediel_sol  =         0.00000000
  ---------------------------------------------------
  free energy    TOTEN  =       -10.26433443 eV

  energy without entropy =      -10.25779592  energy(sigma->0) =      -10.26106518


--------------------------------------------------------------------------------------------------------




--------------------------------------- Iteration      1(  14)  ---------------------------------------


    POTLOK:  cpu time    0.0586: real time    0.0590
    SETDIJ:  cpu time    0.0032: real time    0.0032
     EDDAV:  cpu time    0.6487: real time    0.6517
       DOS:  cpu time    0.0004: real time    0.0004
    CHARGE:  cpu time    0.0678: real time    0.0680
    MIXING:  cpu time    0.0019: real time    0.0019
    --------------------------------------------
      LOOP:  cpu time    0.7805: real time    0.7842

 eigenvalue-minimisations  :  1088
 total energy-change (2. order) :-0.1377654E+00  (-0.3438482E-02)
 number of electron      20.0000091 magnetization       3.9954172
 augmentation part       -1.1165113 magnetization       0.7561430

 Broyden mixing:
  rms(total) = 0.17023E-01    rms(broyden)= 0.17011E-01
  rms(prec ) = 0.25534E-01
  weight for this iteration     100.00

 eigenvalues of (default mixing * dielectric matrix)
  average eigenvalue GAMMA=   1.1374
  2.4974  1.7150  1.0010  1.0010  1.2118  1.1029  0.4874  0.6100  0.6100

 Free energy of the ion-electron system (eV)
  ---------------------------------------------------
  alpha Z        PSCENC =         2.10433961
  Ewald energy   TEWEN  =        34.98228288
  -Hartree energ DENC   =      -931.12800166
  -exchange      EXHF   =         0.00000000
  -V(xc)+E(xc)   XCENC  =        -7.72632867
  PAW double counting   =       765.30154293     -707.02054797
  entropy T*S    EENTRO =        -0.00622720
  eigenvalues    EBANDS =      -190.90279476
  atomic energy  EATOM  =      1023.99363498
  Solvation  Ediel_sol  =         0.00000000
  ---------------------------------------------------
  free energy    TOTEN  =       -10.40209986 eV

  energy without entropy =      -10.39587266  energy(sigma->0) =      -10.39898626


--------------------------------------------------------------------------------------------------------




--------------------------------------- Iteration      1(  15)  ---------------------------------------


    POTLOK:  cpu time    0.0586: real time    0.0589
    SETDIJ:  cpu time    0.0031: real time    0.0031
     EDDAV:  cpu time    0.7770: real time    0.7798
       DOS:  cpu time    0.0004: real time    0.0004
    CHARGE:  cpu time    0.0688: real time    0.0696
    MIXING:  cpu time    0.0020: real time    0.0020
    --------------------------------------------
      LOOP:  cpu time    0.9098: real time    0.9139

 eigenvalue-minimisations  :  1344
 total energy-change (2. order) :-0.4137172E-01  (-0.1168284E-02)
 number of electron      20.0000091 magnetization       4.0023589
 augmentation part       -1.1192401 magnetization       0.7623859

 Broyden mixing:
  rms(total) = 0.11963E-01    rms(broyden)= 0.11957E-01
  rms(prec ) = 0.19147E-01
  weight for this iteration     100.00

 eigenvalues of (default mixing * dielectric matrix)
  average eigenvalue GAMMA=   1.1597
  2.3528  2.3528  1.2563  1.2563  0.9379  0.9379  0.7183  0.7183  0.4902  0.5765

 Free energy of the ion-electron system (eV)
  ---------------------------------------------------
  alpha Z        PSCENC =         2.10433961
  Ewald energy   TEWEN  =        34.98228288
  -Hartree energ DENC   =      -930.66684845
  -exchange      EXHF   =         0.00000000
  -V(xc)+E(xc)   XCENC  =        -7.77442677
  PAW double counting   =       764.73211571     -706.44211462
  entropy T*S    EENTRO =        -0.00686708
  eigenvalues    EBANDS =      -191.36558784
  atomic energy  EATOM  =      1023.99363498
  Solvation  Ediel_sol  =         0.00000000
  ---------------------------------------------------
  free energy    TOTEN  =       -10.44347158 eV

  energy without entropy =      -10.43660450  energy(sigma->0) =      -10.44003804


--------------------------------------------------------------------------------------------------------




--------------------------------------- Iteration      1(  16)  ---------------------------------------


    POTLOK:  cpu time    0.0587: real time    0.0590
    SETDIJ:  cpu time    0.0031: real time    0.0031
     EDDAV:  cpu time    0.7724: real time    0.7753
       DOS:  cpu time    0.0005: real time    0.0005
    CHARGE:  cpu time    0.0693: real time    0.0695
    MIXING:  cpu time    0.0023: real time    0.0026
    --------------------------------------------
      LOOP:  cpu time    0.9063: real time    0.9100

 eigenvalue-minimisations  :  1328
 total energy-change (2. order) :-0.1399314E-01  (-0.4259668E-03)
 number of electron      20.0000091 magnetization       4.0051095
 augmentation part       -1.1200121 magnetization       0.7645216

 Broyden mixing:
  rms(total) = 0.81161E-02    rms(broyden)= 0.81150E-02
  rms(prec ) = 0.14006E-01
  weight for this iteration     100.00

 eigenvalues of (default mixing * dielectric matrix)
  average eigenvalue GAMMA=   1.2235
  2.6569  2.6569  1.4146  1.4146  0.9625  0.9625  0.8403  0.8403  0.4895  0.6099
  0.6099

 Free energy of the ion-electron system (eV)
  ---------------------------------------------------
  alpha Z        PSCENC =         2.10433961
  Ewald energy   TEWEN  =        34.98228288
  -Hartree energ DENC   =      -930.43941477
  -exchange      EXHF   =         0.00000000
  -V(xc)+E(xc)   XCENC  =        -7.79748539
  PAW double counting   =       764.27786835     -705.98310881
  entropy T*S    EENTRO =        -0.00686312
  eigenvalues    EBANDS =      -191.58871845
  atomic energy  EATOM  =      1023.99363498
  Solvation  Ediel_sol  =         0.00000000
  ---------------------------------------------------
  free energy    TOTEN  =       -10.45746472 eV

  energy without entropy =      -10.45060161  energy(sigma->0) =      -10.45403317


--------------------------------------------------------------------------------------------------------




--------------------------------------- Iteration      1(  17)  ---------------------------------------


    POTLOK:  cpu time    0.0586: real time    0.0590
    SETDIJ:  cpu time    0.0031: real time    0.0031
     EDDAV:  cpu time    0.7358: real time    0.7385
       DOS:  cpu time    0.0004: real time    0.0004
    CHARGE:  cpu time    0.0687: real time    0.0689
    MIXING:  cpu time    0.0027: real time    0.0027
    --------------------------------------------
      LOOP:  cpu time    0.8693: real time    0.8725

 eigenvalue-minimisations  :  1232
 total energy-change (2. order) :-0.3922948E-02  (-0.1436675E-03)
 number of electron      20.0000091 magnetization       4.0063986
 augmentation part       -1.1202075 magnetization       0.7652219

 Broyden mixing:
  rms(total) = 0.45922E-02    rms(broyden)= 0.45908E-02
  rms(prec ) = 0.94249E-02
  weight for this iteration     100.00

 eigenvalues of (default mixing * dielectric matrix)
  average eigenvalue GAMMA=   1.2447
  2.7746  2.7746  1.5383  1.5383  0.9549  0.9549  0.9961  0.9367  0.7745  0.4895
  0.6023  0.6023

 Free energy of the ion-electron system (eV)
  ---------------------------------------------------
  alpha Z        PSCENC =         2.10433961
  Ewald energy   TEWEN  =        34.98228288
  -Hartree energ DENC   =      -930.24122807
  -exchange      EXHF   =         0.00000000
  -V(xc)+E(xc)   XCENC  =        -7.82100406
  PAW double counting   =       763.97310984     -705.67664604
  entropy T*S    EENTRO =        -0.00682331
  eigenvalues    EBANDS =      -191.76905350
  atomic energy  EATOM  =      1023.99363498
  Solvation  Ediel_sol  =         0.00000000
  ---------------------------------------------------
  free energy    TOTEN  =       -10.46138767 eV

  energy without entropy =      -10.45456436  energy(sigma->0) =      -10.45797602


--------------------------------------------------------------------------------------------------------




--------------------------------------- Iteration      1(  18)  ---------------------------------------


    POTLOK:  cpu time    0.0586: real time    0.0590
    SETDIJ:  cpu time    0.0032: real time    0.0032
     EDDAV:  cpu time    0.8043: real time    0.8077
       DOS:  cpu time    0.0004: real time    0.0004
    CHARGE:  cpu time    0.0674: real time    0.0676
    MIXING:  cpu time    0.0031: real time    0.0031
    --------------------------------------------
      LOOP:  cpu time    0.9370: real time    0.9411

 eigenvalue-minimisations  :  1392
 total energy-change (2. order) :-0.2715965E-02  (-0.7089261E-04)
 number of electron      20.0000091 magnetization       4.0052794
 augmentation part       -1.1194018 magnetization       0.7645708

 Broyden mixing:
  rms(total) = 0.30370E-02    rms(broyden)= 0.30346E-02
  rms(prec ) = 0.56702E-02
  weight for this iteration     100.00

 eigenvalues of (default mixing * dielectric matrix)
  average eigenvalue GAMMA=   1.2632
  3.2786  2.1587  2.0518  1.4061  1.4061  0.9605  0.9605  0.9037  0.9037  0.4895
  0.6860  0.6079  0.6079

 Free energy of the ion-electron system (eV)
  ---------------------------------------------------
  alpha Z        PSCENC =         2.10433961
  Ewald energy   TEWEN  =        34.98228288
  -Hartree energ DENC   =      -930.19743284
  -exchange      EXHF   =         0.00000000
  -V(xc)+E(xc)   XCENC  =        -7.82381925
  PAW double counting   =       764.25660590     -705.96092394
  entropy T*S    EENTRO =        -0.00657655
  eigenvalues    EBANDS =      -191.81221442
  atomic energy  EATOM  =      1023.99363498
  Solvation  Ediel_sol  =         0.00000000
  ---------------------------------------------------
  free energy    TOTEN  =       -10.46410364 eV

  energy without entropy =      -10.45752709  energy(sigma->0) =      -10.46081536


--------------------------------------------------------------------------------------------------------




--------------------------------------- Iteration      1(  19)  ---------------------------------------


    POTLOK:  cpu time    0.0585: real time    0.0588
    SETDIJ:  cpu time    0.0032: real time    0.0032
     EDDAV:  cpu time    0.7837: real time    0.7867
       DOS:  cpu time    0.0004: real time    0.0004
    CHARGE:  cpu time    0.0678: real time    0.0680
    MIXING:  cpu time    0.0027: real time    0.0028
    --------------------------------------------
      LOOP:  cpu time    0.9163: real time    0.9199

 eigenvalue-minimisations  :  1344
 total energy-change (2. order) :-0.2058141E-02  (-0.5068645E-04)
 number of electron      20.0000091 magnetization       4.0017447
 augmentation part       -1.1188618 magnetization       0.7616474

 Broyden mixing:
  rms(total) = 0.18835E-02    rms(broyden)= 0.18789E-02
  rms(prec ) = 0.34713E-02
  weight for this iteration     100.00

 eigenvalues of (default mixing * dielectric matrix)
  average eigenvalue GAMMA=   1.3096
  3.8454  2.0514  1.9937  1.9937  0.9778  0.9778  1.1960  1.1960  0.8537  0.8537
  0.4895  0.6890  0.6083  0.6083

 Free energy of the ion-electron system (eV)
  ---------------------------------------------------
  alpha Z        PSCENC =         2.10433961
  Ewald energy   TEWEN  =        34.98228288
  -Hartree energ DENC   =      -930.12970510
  -exchange      EXHF   =         0.00000000
  -V(xc)+E(xc)   XCENC  =        -7.82503882
  PAW double counting   =       764.49944468     -706.20455499
  entropy T*S    EENTRO =        -0.00641756
  eigenvalues    EBANDS =      -191.88014746
  atomic energy  EATOM  =      1023.99363498
  Solvation  Ediel_sol  =         0.00000000
  ---------------------------------------------------
  free energy    TOTEN  =       -10.46616178 eV

  energy without entropy =      -10.45974422  energy(sigma->0) =      -10.46295300


--------------------------------------------------------------------------------------------------------




--------------------------------------- Iteration      1(  20)  ---------------------------------------


    POTLOK:  cpu time    0.0587: real time    0.0590
    SETDIJ:  cpu time    0.0032: real time    0.0032
     EDDAV:  cpu time    0.8037: real time    0.8066
       DOS:  cpu time    0.0004: real time    0.0004
    CHARGE:  cpu time    0.0683: real time    0.0685
    MIXING:  cpu time    0.0030: real time    0.0031
    --------------------------------------------
      LOOP:  cpu time    0.9374: real time    0.9409

 eigenvalue-minimisations  :  1392
 total energy-change (2. order) :-0.1479831E-02  (-0.2708551E-04)
 number of electron      20.0000091 magnetization       4.0003487
 augmentation part       -1.1189438 magnetization       0.7603013

 Broyden mixing:
  rms(total) = 0.11821E-02    rms(broyden)= 0.11814E-02
  rms(prec ) = 0.20813E-02
  weight for this iteration     100.00

 eigenvalues of (default mixing * dielectric matrix)
  average eigenvalue GAMMA=   1.4095
  4.7531  2.4518  2.4518  1.6559  1.6559  0.9748  0.9748  1.1162  1.1162  0.8151
  0.8151  0.4895  0.6562  0.6080  0.6080

 Free energy of the ion-electron system (eV)
  ---------------------------------------------------
  alpha Z        PSCENC =         2.10433961
  Ewald energy   TEWEN  =        34.98228288
  -Hartree energ DENC   =      -930.06353124
  -exchange      EXHF   =         0.00000000
  -V(xc)+E(xc)   XCENC  =        -7.82887722
  PAW double counting   =       764.59253362     -706.29837412
  entropy T*S    EENTRO =        -0.00642190
  eigenvalues    EBANDS =      -191.94322823
  atomic energy  EATOM  =      1023.99363498
  Solvation  Ediel_sol  =         0.00000000
  ---------------------------------------------------
  free energy    TOTEN  =       -10.46764161 eV

  energy without entropy =      -10.46121971  energy(sigma->0) =      -10.46443066


--------------------------------------------------------------------------------------------------------




--------------------------------------- Iteration      1(  21)  ---------------------------------------


    POTLOK:  cpu time    0.0584: real time    0.0588
    SETDIJ:  cpu time    0.0032: real time    0.0033
     EDDAV:  cpu time    0.8609: real time    0.8647
       DOS:  cpu time    0.0004: real time    0.0004
    CHARGE:  cpu time    0.0679: real time    0.0682
    MIXING:  cpu time    0.0028: real time    0.0028
    --------------------------------------------
      LOOP:  cpu time    0.9938: real time    0.9982

 eigenvalue-minimisations  :  1504
 total energy-change (2. order) :-0.5042244E-03  (-0.6577963E-05)
 number of electron      20.0000091 magnetization       3.9995976
 augmentation part       -1.1190525 magnetization       0.7594403

 Broyden mixing:
  rms(total) = 0.70341E-03    rms(broyden)= 0.70331E-03
  rms(prec ) = 0.13562E-02
  weight for this iteration     100.00

 eigenvalues of (default mixing * dielectric matrix)
  average eigenvalue GAMMA=   1.4737
  5.7621  2.6142  2.6142  1.6483  1.6483  0.9741  0.9741  1.2096  1.2096  0.9166
  0.9166  0.4895  0.7462  0.6074  0.6074  0.6418

 Free energy of the ion-electron system (eV)
  ---------------------------------------------------
  alpha Z        PSCENC =         2.10433961
  Ewald energy   TEWEN  =        34.98228288
  -Hartree energ DENC   =      -930.05804582
  -exchange      EXHF   =         0.00000000
  -V(xc)+E(xc)   XCENC  =        -7.82934015
  PAW double counting   =       764.68523709     -706.39151985
  entropy T*S    EENTRO =        -0.00641996
  eigenvalues    EBANDS =      -191.94831461
  atomic energy  EATOM  =      1023.99363498
  Solvation  Ediel_sol  =         0.00000000
  ---------------------------------------------------
  free energy    TOTEN  =       -10.46814583 eV

  energy without entropy =      -10.46172587  energy(sigma->0) =      -10.46493585


--------------------------------------------------------------------------------------------------------




--------------------------------------- Iteration      1(  22)  ---------------------------------------


    POTLOK:  cpu time    0.0585: real time    0.0588
    SETDIJ:  cpu time    0.0030: real time    0.0031
     EDDAV:  cpu time    0.6644: real time    0.6667
       DOS:  cpu time    0.0005: real time    0.0005
    CHARGE:  cpu time    0.0698: real time    0.0700
    MIXING:  cpu time    0.0032: real time    0.0032
    --------------------------------------------
      LOOP:  cpu time    0.7993: real time    0.8022

 eigenvalue-minimisations  :  1104
 total energy-change (2. order) :-0.2513234E-03  (-0.1949790E-05)
 number of electron      20.0000091 magnetization       3.9993134
 augmentation part       -1.1191319 magnetization       0.7590619

 Broyden mixing:
  rms(total) = 0.42678E-03    rms(broyden)= 0.42662E-03
  rms(prec ) = 0.86026E-03
  weight for this iteration     100.00

 eigenvalues of (default mixing * dielectric matrix)
  average eigenvalue GAMMA=   1.5219
  6.5468  2.6086  2.6086  2.1157  1.4545  1.4545  0.9738  0.9738  1.1750  1.1750
  0.8640  0.8640  0.4895  0.7167  0.6057  0.6057  0.6404

 Free energy of the ion-electron system (eV)
  ---------------------------------------------------
  alpha Z        PSCENC =         2.10433961
  Ewald energy   TEWEN  =        34.98228288
  -Hartree energ DENC   =      -930.06418360
  -exchange      EXHF   =         0.00000000
  -V(xc)+E(xc)   XCENC  =        -7.82988540
  PAW double counting   =       764.67990179     -706.38625966
  entropy T*S    EENTRO =        -0.00644242
  eigenvalues    EBANDS =      -191.94178533
  atomic energy  EATOM  =      1023.99363498
  Solvation  Ediel_sol  =         0.00000000
  ---------------------------------------------------
  free energy    TOTEN  =       -10.46839716 eV

  energy without entropy =      -10.46195474  energy(sigma->0) =      -10.46517595


--------------------------------------------------------------------------------------------------------




--------------------------------------- Iteration      1(  23)  ---------------------------------------


    POTLOK:  cpu time    0.0583: real time    0.0586
    SETDIJ:  cpu time    0.0031: real time    0.0031
     EDDAV:  cpu time    0.6364: real time    0.6388
       DOS:  cpu time    0.0004: real time    0.0004
    CHARGE:  cpu time    0.0679: real time    0.0682
    MIXING:  cpu time    0.0031: real time    0.0031
    --------------------------------------------
      LOOP:  cpu time    0.7693: real time    0.7722

 eigenvalue-minimisations  :  1056
 total energy-change (2. order) :-0.1852247E-03  (-0.1562763E-05)
 number of electron      20.0000091 magnetization       3.9994271
 augmentation part       -1.1191448 magnetization       0.7591429

 Broyden mixing:
  rms(total) = 0.29564E-03    rms(broyden)= 0.29551E-03
  rms(prec ) = 0.49919E-03
  weight for this iteration     100.00

 eigenvalues of (default mixing * dielectric matrix)
  average eigenvalue GAMMA=   1.5689
  7.1685  2.8927  2.4707  2.4707  1.5498  1.5498  1.2280  1.2280  0.9734  0.9734
  0.9378  0.9378  0.4895  0.7904  0.7308  0.6083  0.6083  0.6329

 Free energy of the ion-electron system (eV)
  ---------------------------------------------------
  alpha Z        PSCENC =         2.10433961
  Ewald energy   TEWEN  =        34.98228288
  -Hartree energ DENC   =      -930.06009220
  -exchange      EXHF   =         0.00000000
  -V(xc)+E(xc)   XCENC  =        -7.83038786
  PAW double counting   =       764.64578141     -706.35207971
  entropy T*S    EENTRO =        -0.00644386
  eigenvalues    EBANDS =      -191.94561763
  atomic energy  EATOM  =      1023.99363498
  Solvation  Ediel_sol  =         0.00000000
  ---------------------------------------------------
  free energy    TOTEN  =       -10.46858238 eV

  energy without entropy =      -10.46213853  energy(sigma->0) =      -10.46536045


--------------------------------------------------------------------------------------------------------




--------------------------------------- Iteration      1(  24)  ---------------------------------------


    POTLOK:  cpu time    0.0585: real time    0.0588
    SETDIJ:  cpu time    0.0031: real time    0.0031
     EDDAV:  cpu time    0.7554: real time    0.7583
       DOS:  cpu time    0.0004: real time    0.0004
    --------------------------------------------
      LOOP:  cpu time    0.8174: real time    0.8206

 eigenvalue-minimisations  :  1296
 total energy-change (2. order) :-0.5432894E-04  (-0.2500772E-06)
 number of electron      20.0000091 magnetization       3.9994271
 augmentation part       -1.1191448 magnetization       0.7591429

 Free energy of the ion-electron system (eV)
  ---------------------------------------------------
  alpha Z        PSCENC =         2.10433961
  Ewald energy   TEWEN  =        34.98228288
  -Hartree energ DENC   =      -930.05767705
  -exchange      EXHF   =         0.00000000
  -V(xc)+E(xc)   XCENC  =        -7.83034608
  PAW double counting   =       764.62468233     -706.33090505
  entropy T*S    EENTRO =        -0.00644683
  eigenvalues    EBANDS =      -191.94820150
  atomic energy  EATOM  =      1023.99363498
  Solvation  Ediel_sol  =         0.00000000
  ---------------------------------------------------
  free energy    TOTEN  =       -10.46863671 eV

  energy without entropy =      -10.46218988  energy(sigma->0) =      -10.46541330


--------------------------------------------------------------------------------------------------------




 average (electrostatic) potential at core
  the test charge radii are     1.1823  0.9406
  (the norm of the test charge is              1.0000)
       1 -50.3428       2-101.5055       3 -98.8824
 
 
 
 E-fermi :  -4.9742     XC(G=0):  -0.9316     alpha+bet : -0.3520


 spin component 1

 k-point     1 :       0.1250    0.1250    0.1250
  band No.  band energies     occupation 
      1     -20.7345      1.00000
      2     -17.6683      1.00000
      3     -10.1358      1.00000
      4      -9.1465      1.00000
      5      -8.8508      1.00000
      6      -6.4816      1.00000
      7      -5.9515      1.00000
      8      -5.8628      1.00000
      9      -5.7549      1.00000
     10      -5.5952      0.99999
     11      -5.4999      0.99990
     12      -5.3134      0.99178
     13      -4.6354      0.00830
     14      -4.0430      0.00000
     15      -1.5702      0.00000
     16      -1.4478      0.00000

 k-point     2 :       0.3750    0.1250    0.1250
  band No.  band energies     occupation 
      1     -20.7345      1.00000
      2     -17.6683      1.00000
      3     -10.1358      1.00000
      4      -9.1465      1.00000
      5      -8.8508      1.00000
      6      -6.4816      1.00000
      7      -5.9515      1.00000
      8      -5.8628      1.00000
      9      -5.7549      1.00000
     10      -5.5952      0.99999
     11      -5.4999      0.99990
     12      -5.3134      0.99178
     13      -4.6354      0.00830
     14      -4.0430      0.00000
     15      -1.5819      0.00000
     16      -1.4466      0.00000

 k-point     3 :       0.1250    0.3750    0.1250
  band No.  band energies     occupation 
      1     -20.7345      1.00000
      2     -17.6683      1.00000
      3     -10.1358      1.00000
      4      -9.1464      1.00000
      5      -8.8508      1.00000
      6      -6.4816      1.00000
      7      -5.9516      1.00000
      8      -5.8628      1.00000
      9      -5.7549      1.00000
     10      -5.5952      0.99999
     11      -5.4999      0.99990
     12      -5.3134      0.99178
     13      -4.6358      0.00836
     14      -4.0430      0.00000
     15      -1.5692      0.00000
     16      -1.4570      0.00000

 k-point     4 :       0.3750    0.3750    0.1250
  band No.  band energies     occupation 
      1     -20.7345      1.00000
      2     -17.6683      1.00000
      3     -10.1359      1.00000
      4      -9.1464      1.00000
      5      -8.8508      1.00000
      6      -6.4815      1.00000
      7      -5.9516      1.00000
      8      -5.8628      1.00000
      9      -5.7549      1.00000
     10      -5.5952      0.99999
     11      -5.4999      0.99990
     12      -5.3134      0.99178
     13      -4.6358      0.00836
     14      -4.0430      0.00000
     15      -1.5807      0.00000
     16      -1.4555      0.00000

 k-point     5 :       0.1250   -0.3750    0.1250
  band No.  band energies     occupation 
      1     -20.7345      1.00000
      2     -17.6683      1.00000
      3     -10.1358      1.00000
      4      -9.1464      1.00000
      5      -8.8508      1.00000
      6      -6.4816      1.00000
      7      -5.9516      1.00000
      8      -5.8628      1.00000
      9      -5.7549      1.00000
     10      -5.5952      0.99999
     11      -5.4999      0.99990
     12      -5.3134      0.99178
     13      -4.6357      0.00835
     14      -4.0430      0.00000
     15      -1.5692      0.00000
     16      -1.4571      0.00000

 k-point     6 :       0.3750   -0.3750    0.1250
  band No.  band energies     occupation 
      1     -20.7345      1.00000
      2     -17.6683      1.00000
      3     -10.1359      1.00000
      4      -9.1464      1.00000
      5      -8.8508      1.00000
      6      -6.4815      1.00000
      7      -5.9516      1.00000
      8      -5.8628      1.00000
      9      -5.7549      1.00000
     10      -5.5952      0.99999
     11      -5.4999      0.99990
     12      -5.3134      0.99178
     13      -4.6358      0.00836
     14      -4.0430      0.00000
     15      -1.5807      0.00000
     16      -1.4555      0.00000

 k-point     7 :       0.1250   -0.1250    0.1250
  band No.  band energies     occupation 
      1     -20.7345      1.00000
      2     -17.6683      1.00000
      3     -10.1358      1.00000
      4      -9.1464      1.00000
      5      -8.8508      1.00000
      6      -6.4816      1.00000
      7      -5.9515      1.00000
      8      -5.8628      1.00000
      9      -5.7549      1.00000
     10      -5.5952      0.99999
     11      -5.4999      0.99990
     12      -5.3134      0.99178
     13      -4.6354      0.00830
     14      -4.0430      0.00000
     15      -1.5702      0.00000
     16      -1.4479      0.00000

 k-point     8 :       0.3750   -0.1250    0.1250
  band No.  band energies     occupation 
      1     -20.7345      1.00000
      2     -17.6683      1.00000
      3     -10.1358      1.00000
      4      -9.1464      1.00000
      5      -8.8508      1.00000
      6      -6.4816      1.00000
      7      -5.9515      1.00000
      8      -5.8628      1.00000
      9      -5.7549      1.00000
     10      -5.5952      0.99999
     11      -5.4999      0.99990
     12      -5.3134      0.99178
     13      -4.6354      0.00830
     14      -4.0430      0.00000
     15      -1.5819      0.00000
     16      -1.4466      0.00000

 k-point     9 :       0.1250    0.1250    0.3750
  band No.  band energies     occupation 
      1     -20.7345      1.00000
      2     -17.6683      1.00000
      3     -10.1358      1.00000
      4      -9.1465      1.00000
      5      -8.8508      1.00000
      6      -6.4816      1.00000
      7      -5.9514      1.00000
      8      -5.8628      1.00000
      9      -5.7549      1.00000
     10      -5.5952      0.99999
     11      -5.4999      0.99990
     12      -5.3134      0.99178
     13      -4.6354      0.00829
     14      -4.0419      0.00000
     15      -1.5706      0.00000
     16      -1.4466      0.00000

 k-point    10 :       0.3750    0.1250    0.3750
  band No.  band energies     occupation 
      1     -20.7345      1.00000
      2     -17.6683      1.00000
      3     -10.1358      1.00000
      4      -9.1465      1.00000
      5      -8.8508      1.00000
      6      -6.4816      1.00000
      7      -5.9514      1.00000
      8      -5.8628      1.00000
      9      -5.7549      1.00000
     10      -5.5952      0.99999
     11      -5.4999      0.99990
     12      -5.3134      0.99178
     13      -4.6354      0.00831
     14      -4.0419      0.00000
     15      -1.5821      0.00000
     16      -1.4454      0.00000

 k-point    11 :       0.1250    0.3750    0.3750
  band No.  band energies     occupation 
      1     -20.7345      1.00000
      2     -17.6683      1.00000
      3     -10.1358      1.00000
      4      -9.1464      1.00000
      5      -8.8509      1.00000
      6      -6.4816      1.00000
      7      -5.9515      1.00000
      8      -5.8629      1.00000
      9      -5.7549      1.00000
     10      -5.5952      0.99999
     11      -5.4999      0.99990
     12      -5.3134      0.99178
     13      -4.6357      0.00836
     14      -4.0419      0.00000
     15      -1.5697      0.00000
     16      -1.4555      0.00000

 k-point    12 :       0.3750    0.3750    0.3750
  band No.  band energies     occupation 
      1     -20.7345      1.00000
      2     -17.6683      1.00000
      3     -10.1358      1.00000
      4      -9.1464      1.00000
      5      -8.8508      1.00000
      6      -6.4816      1.00000
[...]
  band No.  band energies     occupation 
      1     -20.2814      1.00000
      2     -19.9545      1.00000
      3      -9.9607      1.00000
      4      -8.7392      1.00000
      5      -8.2379      1.00000
      6      -8.1097      1.00000
      7      -8.0628      1.00000
      8      -7.8848      1.00000
      9      -3.5850      0.00000
     10      -2.8097      0.00000
     11      -2.6319      0.00000
     12      -2.6311      0.00000
     13      -2.5137      0.00000
     14      -0.3254      0.00000
     15       0.1284      0.00000
     16       0.2651      0.00000

 k-point     8 :       0.3750   -0.1250    0.1250
  band No.  band energies     occupation 
      1     -20.2815      1.00000
      2     -19.9545      1.00000
      3      -9.9607      1.00000
      4      -8.7393      1.00000
      5      -8.2380      1.00000
      6      -8.1097      1.00000
      7      -8.0628      1.00000
      8      -7.8847      1.00000
      9      -3.5847      0.00000
     10      -2.8097      0.00000
     11      -2.6319      0.00000
     12      -2.6309      0.00000
     13      -2.5136      0.00000
     14      -0.3037      0.00000
     15       0.1015      0.00000
     16       0.2198      0.00000

 k-point     9 :       0.1250    0.1250    0.3750
  band No.  band energies     occupation 
      1     -20.2814      1.00000
      2     -19.9545      1.00000
      3      -9.9607      1.00000
      4      -8.7393      1.00000
      5      -8.2379      1.00000
      6      -8.1097      1.00000
      7      -8.0627      1.00000
      8      -7.8849      1.00000
      9      -3.5847      0.00000
     10      -2.8096      0.00000
     11      -2.6319      0.00000
     12      -2.6311      0.00000
     13      -2.5137      0.00000
     14      -0.3039      0.00000
     15       0.0957      0.00000
     16       0.2731      0.00000

 k-point    10 :       0.3750    0.1250    0.3750
  band No.  band energies     occupation 
      1     -20.2814      1.00000
      2     -19.9545      1.00000
      3      -9.9608      1.00000
      4      -8.7393      1.00000
      5      -8.2380      1.00000
      6      -8.1098      1.00000
      7      -8.0627      1.00000
      8      -7.8848      1.00000
      9      -3.5845      0.00000
     10      -2.8097      0.00000
     11      -2.6320      0.00000
     12      -2.6309      0.00000
     13      -2.5137      0.00000
     14      -0.2881      0.00000
     15       0.1285      0.00000
     16       0.1855      0.00000

 k-point    11 :       0.1250    0.3750    0.3750
  band No.  band energies     occupation 
      1     -20.2814      1.00000
      2     -19.9545      1.00000
      3      -9.9605      1.00000
      4      -8.7396      1.00000
      5      -8.2381      1.00000
      6      -8.1099      1.00000
      7      -8.0626      1.00000
      8      -7.8848      1.00000
      9      -3.5846      0.00000
     10      -2.8111      0.00000
     11      -2.6319      0.00000
     12      -2.6310      0.00000
     13      -2.5142      0.00000
     14      -0.2480      0.00000
     15       0.1600      0.00000
     16       0.2790      0.00000

 k-point    12 :       0.3750    0.3750    0.3750
  band No.  band energies     occupation 
      1     -20.2814      1.00000
      2     -19.9545      1.00000
      3      -9.9605      1.00000
      4      -8.7396      1.00000
      5      -8.2380      1.00000
      6      -8.1098      1.00000
      7      -8.0626      1.00000
      8      -7.8847      1.00000
      9      -3.5843      0.00000
     10      -2.8110      0.00000
     11      -2.6319      0.00000
     12      -2.6308      0.00000
     13      -2.5142      0.00000
     14      -0.2369      0.00000
     15       0.1657      0.00000
     16       0.2385      0.00000

 k-point    13 :       0.1250   -0.3750    0.3750
  band No.  band energies     occupation 
      1     -20.2814      1.00000
      2     -19.9545      1.00000
      3      -9.9605      1.00000
      4      -8.7396      1.00000
      5      -8.2381      1.00000
      6      -8.1099      1.00000
      7      -8.0626      1.00000
      8      -7.8848      1.00000
      9      -3.5846      0.00000
     10      -2.8111      0.00000
     11      -2.6319      0.00000
     12      -2.6310      0.00000
     13      -2.5142      0.00000
     14      -0.2485      0.00000
     15       0.1662      0.00000
     16       0.2786      0.00000

 k-point    14 :       0.3750   -0.3750    0.3750
  band No.  band energies     occupation 
      1     -20.2814      1.00000
      2     -19.9545      1.00000
      3      -9.9605      1.00000
      4      -8.7396      1.00000
      5      -8.2380      1.00000
      6      -8.1098      1.00000
      7      -8.0626      1.00000
      8      -7.8847      1.00000
      9      -3.5843      0.00000
     10      -2.8110      0.00000
     11      -2.6319      0.00000
     12      -2.6308      0.00000
     13      -2.5142      0.00000
     14      -0.2373      0.00000
     15       0.1664      0.00000
     16       0.2431      0.00000

 k-point    15 :       0.1250   -0.1250    0.3750
  band No.  band energies     occupation 
      1     -20.2814      1.00000
      2     -19.9545      1.00000
      3      -9.9607      1.00000
      4      -8.7393      1.00000
      5      -8.2379      1.00000
      6      -8.1097      1.00000
      7      -8.0627      1.00000
      8      -7.8849      1.00000
      9      -3.5847      0.00000
     10      -2.8096      0.00000
     11      -2.6319      0.00000
     12      -2.6311      0.00000
     13      -2.5136      0.00000
     14      -0.3042      0.00000
     15       0.0976      0.00000
     16       0.2732      0.00000

 k-point    16 :       0.3750   -0.1250    0.3750
  band No.  band energies     occupation 
      1     -20.2814      1.00000
      2     -19.9545      1.00000
      3      -9.9608      1.00000
      4      -8.7393      1.00000
      5      -8.2380      1.00000
      6      -8.1098      1.00000
      7      -8.0627      1.00000
      8      -7.8848      1.00000
      9      -3.5845      0.00000
     10      -2.8097      0.00000
     11      -2.6320      0.00000
     12      -2.6309      0.00000
     13      -2.5137      0.00000
     14      -0.2883      0.00000
     15       0.1293      0.00000
     16       0.1863      0.00000


--------------------------------------------------------------------------------------------------------


 soft charge-density along one line, spin component           1
         0         1         2         3         4         5         6         7         8         9
 total charge-density along one line
 
 soft charge-density along one line, spin component           2
         0         1         2         3         4         5         6         7         8         9
 total charge-density along one line
 
 pseudopotential strength for first ion, spin component:           1
 -9.314   0.000  -0.000   0.000  -0.000 -10.741   0.000  -0.000
  0.000  -9.357  -0.000   0.000  -0.000   0.000 -10.791  -0.000
 -0.000  -0.000  -9.343  -0.000  -0.019  -0.000  -0.000 -10.774
  0.000   0.000  -0.000  -9.320  -0.000   0.000   0.000  -0.000
 -0.000  -0.000  -0.019  -0.000  -9.313  -0.000  -0.000  -0.023
-10.741   0.000  -0.000   0.000  -0.000 -12.370   0.000  -0.000
  0.000 -10.791  -0.000   0.000  -0.000   0.000 -12.429  -0.000
 -0.000  -0.000 -10.774  -0.000  -0.023  -0.000  -0.000 -12.410
  0.000   0.000  -0.000 -10.747  -0.000   0.000   0.000  -0.000
 -0.000  -0.000  -0.023  -0.000 -10.740  -0.000  -0.000  -0.027
 -0.000  -0.000   0.006   0.000  -0.019  -0.000  -0.000   0.007
 -0.000  -0.000   0.009   0.000  -0.031  -0.000  -0.000   0.011
  0.000   0.015  -0.000  -0.000  -0.001  -0.000   0.017  -0.000
 -0.000   0.000   0.010   0.000  -0.003  -0.000   0.001   0.012
  0.000  -0.000   0.000   0.009  -0.000   0.001  -0.000  -0.000
  0.000   0.016  -0.001  -0.000  -0.001   0.000   0.019  -0.001
 -0.000   0.001   0.009   0.000  -0.004  -0.000   0.001   0.010
  0.001  -0.000   0.000   0.008  -0.000   0.001  -0.000   0.000
 pseudopotential strength for first ion, spin component:           2
 -9.115   0.000  -0.000   0.000   0.000 -10.498   0.000  -0.000
  0.000  -9.227  -0.001   0.000  -0.000   0.000 -10.631  -0.001
 -0.000  -0.001  -9.137   0.000  -0.030  -0.000  -0.001 -10.524
  0.000   0.000   0.000  -9.114   0.000   0.000   0.000   0.000
  0.000  -0.000  -0.030   0.000  -9.148   0.000  -0.000  -0.036
-10.498   0.000  -0.000   0.000   0.000 -12.075   0.000  -0.000
  0.000 -10.631  -0.001   0.000  -0.000   0.000 -12.233  -0.001
 -0.000  -0.001 -10.524   0.000  -0.036  -0.000  -0.001 -12.105
  0.000   0.000   0.000 -10.496   0.000   0.000   0.000   0.000
  0.000  -0.000  -0.036   0.000 -10.537   0.000  -0.000  -0.044
 -0.000   0.001  -0.005  -0.000  -0.089  -0.000   0.001  -0.005
 -0.000   0.001  -0.010  -0.000  -0.155  -0.000   0.001  -0.010
 -0.000   0.016  -0.000  -0.000  -0.001  -0.000   0.019  -0.000
 -0.000   0.000   0.015   0.000  -0.002  -0.000   0.000   0.018
  0.000  -0.000   0.000   0.013  -0.000   0.000  -0.000   0.000
  0.000   0.020  -0.000  -0.000  -0.001   0.000   0.024  -0.001
 -0.000   0.001   0.017   0.000  -0.003  -0.000   0.001   0.021
  0.001  -0.000   0.000   0.015  -0.000   0.001  -0.000   0.000
 total augmentation occupancy for first ion, spin component:           1
  3.788   0.000   0.000   0.012   0.000  -2.092   0.000   0.000  -0.010   0.000   0.000   0.000   0.000   0.000   0.002   0.000
  0.000   5.506   0.001   0.000  -0.050   0.000  -3.497  -0.003   0.000   0.036   0.022  -0.005  -0.794  -0.006   0.000   0.063
  0.000   0.001   3.452   0.000   4.064   0.000  -0.004  -1.760   0.000  -3.024  -1.152   0.263  -0.012   0.053   0.000   0.000
  0.012   0.000   0.000   1.290   0.000  -0.010   0.000   0.000  -0.148   0.000   0.000   0.000   0.000   0.000  -0.070   0.000
  0.000  -0.050   4.064   0.000   9.017   0.000   0.037  -3.051   0.000  -5.935  -2.248   0.455  -0.012   0.285   0.000  -0.000
 -2.092   0.000   0.000  -0.010   0.000   1.557   0.000   0.000   0.007   0.000   0.000   0.000   0.000   0.000  -0.001   0.000
  0.000  -3.497  -0.004   0.000   0.037   0.000   2.354   0.001   0.000  -0.026  -0.018   0.003   0.563   0.004   0.000  -0.043
  0.000  -0.003  -1.760   0.000  -3.051   0.000   0.001   1.243   0.000   2.148   0.912  -0.157   0.008  -0.016   0.000  -0.000
 -0.010   0.000   0.000  -0.148   0.000   0.007   0.000   0.000   0.100   0.000   0.000   0.000   0.000   0.000   0.066   0.000
  0.000   0.036  -3.024   0.000  -5.935   0.000  -0.026   2.148   0.000   4.188   1.886  -0.325   0.009  -0.194   0.000   0.000
  0.000   0.022  -1.152   0.000  -2.248   0.000  -0.018   0.912   0.000   1.886   1.527  -0.110   0.002  -0.093   0.000   0.000
  0.000  -0.005   0.263   0.000   0.455   0.000   0.003  -0.157   0.000  -0.325  -0.110   0.034  -0.000   0.023   0.000  -0.000
  0.000  -0.794  -0.012   0.000  -0.012   0.000   0.563   0.008   0.000   0.009   0.002  -0.000   0.352   0.002   0.000  -0.023
  0.000  -0.006   0.053   0.000   0.285   0.000   0.004  -0.016   0.000  -0.194  -0.093   0.023   0.002   0.062   0.000  -0.000
  0.002   0.000   0.000  -0.070   0.000  -0.001   0.000   0.000   0.066   0.000   0.000   0.000   0.000   0.000   0.045   0.000
  0.000   0.063   0.000   0.000  -0.000   0.000  -0.043  -0.000   0.000   0.000   0.000  -0.000  -0.023  -0.000   0.000   0.002
  0.000   0.001   0.003   0.000  -0.021   0.000  -0.001   0.002   0.000   0.014   0.010  -0.001  -0.000  -0.004   0.000   0.000
  0.000   0.000   0.000   0.011   0.000  -0.000   0.000   0.000  -0.004   0.000   0.000   0.000   0.000   0.000  -0.002   0.000
 total augmentation occupancy for first ion, spin component:           2
  0.280   0.000   0.000  -0.004   0.000   0.209   0.000   0.000   0.001   0.000   0.000   0.000   0.000   0.000   0.000   0.000
  0.000   0.047  -0.005   0.000   0.001   0.000   0.153  -0.001   0.000  -0.002  -0.005  -0.001   0.027   0.000   0.000   0.004
  0.000  -0.005   0.800   0.000  -0.413   0.000  -0.001   0.112   0.000   0.187   0.162   0.078  -0.000   0.032   0.000   0.000
 -0.004   0.000   0.000   1.051   0.000   0.001   0.000   0.000   0.009   0.000   0.000   0.000   0.000   0.000   0.024   0.000
  0.000   0.001  -0.413   0.000   0.367   0.000  -0.002   0.156   0.000   0.295   0.504   0.067  -0.000   0.015   0.000   0.000
  0.209   0.000   0.000   0.001   0.000   0.048   0.000   0.000   0.000   0.000   0.000   0.000   0.000   0.000  -0.000   0.000
  0.000   0.153  -0.001   0.000  -0.002   0.000  -0.101   0.001   0.000   0.003   0.001   0.000  -0.007  -0.001   0.000  -0.002
  0.000  -0.001   0.112   0.000   0.156   0.000   0.001  -0.089   0.000  -0.167  -0.032  -0.017   0.000   0.008   0.000  -0.000
  0.001   0.000   0.000   0.009   0.000   0.000   0.000   0.000  -0.003   0.000   0.000   0.000   0.000   0.000   0.004   0.000
  0.000  -0.002   0.187   0.000   0.295   0.000   0.003  -0.167   0.000  -0.325  -0.088  -0.033   0.000   0.004   0.000  -0.000
  0.000  -0.005   0.162   0.000   0.504   0.000   0.001  -0.032   0.000  -0.088   0.610   0.012  -0.000   0.032   0.000  -0.000
  0.000  -0.001   0.078   0.000   0.067   0.000   0.000  -0.017   0.000  -0.033   0.012   0.009   0.000   0.006   0.000  -0.000
  0.000   0.027  -0.000   0.000  -0.000   0.000  -0.007   0.000   0.000   0.000  -0.000   0.000   0.017  -0.000   0.000  -0.002
  0.000   0.000   0.032   0.000   0.015   0.000  -0.001   0.008   0.000   0.004   0.032   0.006  -0.000   0.011   0.000  -0.000
  0.000   0.000   0.000   0.024   0.000  -0.000   0.000   0.000   0.004   0.000   0.000   0.000   0.000   0.000   0.008   0.000
  0.000   0.004   0.000   0.000   0.000   0.000  -0.002  -0.000   0.000  -0.000  -0.000  -0.000  -0.002  -0.000   0.000   0.000
  0.000  -0.000   0.004   0.000  -0.005   0.000   0.000   0.001   0.000   0.002   0.002  -0.000   0.000  -0.000   0.000  -0.000
 -0.000   0.000   0.000   0.005   0.000   0.000   0.000   0.000   0.000   0.000   0.000   0.000   0.000   0.000  -0.000   0.000


------------------------ aborting loop because EDIFF is reached ----------------------------------------


    CHARGE:  cpu time    0.0664: real time    0.0666
    FORLOC:  cpu time    0.0013: real time    0.0013
    FORNL :  cpu time    0.0763: real time    0.0766
    STRESS:  cpu time    0.7214: real time    0.7239
    FORCOR:  cpu time    0.0553: real time    0.0555
    FORHAR:  cpu time    0.0059: real time    0.0059
    MIXING:  cpu time    0.0012: real time    0.0012
    OFIELD:  cpu time    0.0000: real time    0.0000

  FORCE on cell =-STRESS in cart. coord.  units (eV):
  Direction    XX          YY          ZZ          XY          YZ          ZX
  --------------------------------------------------------------------------------------
  Alpha Z     2.10434     2.10434     2.10434
  Ewald    -235.76559   478.27619  -202.04179    -0.00000     3.47708    -0.00000
  Hartree   154.63650   603.57429   167.84870     0.00000     2.04875    -0.00000
  E(xc)     -77.45227   -77.20046   -76.91274     0.00000     0.00088     0.00000
  Local    -278.32905 -1415.55852  -317.19084    -0.00000    -5.43542    -0.00000
  n-local   139.36421   154.21768   142.26522    -0.00001     0.06264    -0.00143
  augment   -33.55278   -33.94677   -33.98779     0.00000     0.00139     0.00000
  Kinetic   328.59175   287.86351   317.49266     0.00001    -0.18672     0.00069
  Fock        0.00000     0.00000     0.00000     0.00000     0.00000     0.00000
  -------------------------------------------------------------------------------------
  Total      -0.40288    -0.66973    -0.42224     0.00000    -0.03141     0.00000
  in kB      -0.37354    -0.62096    -0.39149     0.00000    -0.02913     0.00000
  external pressure =       -0.46 kB  Pullay stress =        0.00 kB


 VOLUME and BASIS-vectors are now :
 -----------------------------------------------------------------------------
  energy-cutoff  :      280.00
  volume of cell :     1728.00
      direct lattice vectors                 reciprocal lattice vectors
    12.000000000  0.000000000  0.000000000     0.083333333  0.000000000  0.000000000
     0.000000000 12.000000000  0.000000000     0.000000000  0.083333333  0.000000000
     0.000000000  0.000000000 12.000000000     0.000000000  0.000000000  0.083333333

  length of vectors
    12.000000000 12.000000000 12.000000000     0.083333333  0.083333333  0.083333333


 FORCES acting on ions
    electron-ion (+dipol)            ewald-force                    non-local-force                 convergence-correction
 -----------------------------------------------------------------------------------------------
   0.603E-14 0.724E+00 -.582E+02   -.691E-16 -.721E+00 0.567E+02   0.000E+00 -.406E-01 0.143E+01   0.740E-14 -.147E-01 0.296E-02
   -.772E-14 0.134E+03 0.289E+02   0.126E-15 -.136E+03 -.292E+02   0.000E+00 0.170E+01 0.373E+00   0.226E-13 -.896E-02 -.901E-03
   -.256E-14 -.135E+03 0.271E+02   -.824E-16 0.136E+03 -.274E+02   -.339E-20 -.168E+01 0.346E+00   0.278E-13 -.308E-01 0.900E-02
 -----------------------------------------------------------------------------------------------
   -.425E-14 0.812E-01 -.215E+01   -.256E-16 0.284E-13 0.000E+00   -.339E-20 -.285E-01 0.215E+01   0.578E-13 -.544E-01 0.111E-01
 
 
 POSITION                                       TOTAL-FORCE (eV/Angst)
 -----------------------------------------------------------------------------------
      0.00000      0.87550      1.37384        -0.000000     -0.051966     -0.063850
      0.00000     -1.32104      0.79854         0.000000      0.101029      0.039836
     -0.00000      3.07576      0.82762         0.000000     -0.049064      0.024014
 -----------------------------------------------------------------------------------
    total drift:                                0.000000     -0.001666      0.004093


--------------------------------------------------------------------------------------------------------



  FREE ENERGIE OF THE ION-ELECTRON SYSTEM (eV)
  ---------------------------------------------------
  free  energy   TOTEN  =       -14.16414328 eV

  energy  without entropy=      -14.08465422  energy(sigma->0) =      -14.12439875
 
 d Force = 0.3181247E-03[ 0.611E-05, 0.630E-03]  d Energy = 0.4802654E-03-0.162E-03
 d Force = 0.3676347E+00[ 0.365E+00, 0.370E+00]  d Ewald  = 0.3676326E+00 0.211E-05


--------------------------------------------------------------------------------------------------------


    POTLOK:  cpu time    0.0616: real time    0.0618


--------------------------------------------------------------------------------------------------------




--------------------------------------------------------------------------------------------------------


  
 reached required accuracy - stopping structural energy minimisation
 writing wavefunctions
     LOOP+:  cpu time    4.2801: real time    4.3364
    4ORBIT:  cpu time    0.0000: real time    0.0000

 total amount of memory used by VASP MPI-rank0   143841. kBytes
=======================================================================

   base      :      30000. kBytes
   nonl-proj :      85670. kBytes
   fftplans  :       2864. kBytes
   grid      :      15769. kBytes
   one-center:         93. kBytes
   wavefun   :       9445. kBytes
 
  
  
 General timing and accounting informations for this job:
 ========================================================
  
                  Total CPU time used (sec):      426.397
                            User time (sec):      410.451
                          System time (sec):       15.946
                         Elapsed time (sec):      428.969
  
                   Maximum memory used (kb):      305864.
                   Average memory used (kb):           0.
  
                          Minor page faults:       144935
                          Major page faults:           37
                 Voluntary context switches:        11232
