 vasp.5.4.1 05Feb16 (build Mar 19 2020 08:54:17) complex                        
  
 executed on           IFC91_ompi date 2022.03.14  16:48:39
 running on   96 total cores
 distrk:  each k-point on   96 cores,    1 groups
 distr:  one band on NCORES_PER_BAND=  24 cores,    4 groups


--------------------------------------------------------------------------------------------------------


 INCAR:
 POTCAR:    PAW_PBE Nb_sv 25May2007               
 POTCAR:    PAW_PBE Cl 06Sep2000                  

 ----------------------------------------------------------------------------- 
|                                                                             |
|           W    W    AA    RRRRR   N    N  II  N    N   GGGG   !!!           |
|           W    W   A  A   R    R  NN   N  II  NN   N  G    G  !!!           |
|           W    W  A    A  R    R  N N  N  II  N N  N  G       !!!           |
|           W WW W  AAAAAA  RRRRR   N  N N  II  N  N N  G  GGG   !            |
|           WW  WW  A    A  R   R   N   NN  II  N   NN  G    G                |
|           W    W  A    A  R    R  N    N  II  N    N   GGGG   !!!           |
|                                                                             |
|      For optimal performance we recommend to set                            |
|        NCORE= 4 - approx SQRT( number of cores)                             |
|      NCORE specifies how many cores store one orbital (NPAR=cpu/NCORE).     |
|      This setting can  greatly improve the performance of VASP for DFT.     |
|      The default, NPAR=number of cores might be grossly inefficient         |
|      on modern multi-core architectures or massively parallel machines.     |
|      Do your own testing !!!!                                               |
|      Unfortunately you need to use the default for GW and RPA calculations. |
|      (for HF NCORE is supported but not extensively tested yet)             |
|                                                                             |
 ----------------------------------------------------------------------------- 

 POTCAR:    PAW_PBE Nb_sv 25May2007               
   VRHFIN =Nb: 4p5s4d                                                           
   LEXCH  = PE                                                                  
   EATOM  =  1555.1913 eV,  114.3033 Ry                                         
                                                                                
   TITEL  = PAW_PBE Nb_sv 25May2007                                             
   LULTRA =        F    use ultrasoft PP ?                                      
   IUNSCR =        1    unscreen: 0-lin 1-nonlin 2-no                           
   RPACOR =    1.800    partial core radius                                     
   POMASS =   92.910; ZVAL   =   13.000    mass and valenz                      
   RCORE  =    2.400    outmost cutoff radius                                   
   RWIGS  =    2.400; RWIGS  =    1.270    wigner-seitz radius (au A)           
   ENMAX  =  293.235; ENMIN  =  219.927 eV                                      
   ICORE  =        3    local potential                                         
   LCOR   =        T    correct aug charges                                     
   LPAW   =        T    paw PP                                                  
   EAUG   =  455.659                                                            
   DEXC   =    0.000                                                            
   RMAX   =    2.456    core radius for proj-oper                               
   RAUG   =    1.300    factor for augmentation sphere                          
   RDEP   =    2.451    radius for radial grids                                 
   RDEPT  =    1.956    core radius for aug-charge                              
                                                                                
   Atomic configuration                                                         
   11 entries                                                                   
     n  l   j            E        occ.                                          
     1  0  0.50    -18805.2457   2.0000                                         
     2  0  0.50     -2630.2869   2.0000                                         
     2  1  1.50     -2348.4046   6.0000                                         
     3  0  0.50      -438.8757   2.0000                                         
     3  1  1.50      -346.7588   6.0000                                         
     3  2  2.50      -196.2560  10.0000                                         
     4  0  0.50       -58.3859   2.0000                                         
     5  0  0.50        -3.9816   1.0000                                         
     4  1  1.50       -34.5141   6.0000                                         
     4  2  2.50        -3.0408   4.0000                                         
     4  3  2.50        -1.3606   0.0000                                         
   Description                                                                  
     l       E           TYP  RCUT    TYP  RCUT                                 
     0    -58.3859094     23  2.200                                             
     0     -3.9816262     23  2.200                                             
     1    -34.5140738     23  2.200                                             
     1     13.6058260     23  2.200                                             
     2     -3.0408010     23  2.200                                             
     2     -0.1283038     23  2.200                                             
     3     -1.3605826     23  2.400                                             
  local pseudopotential read in
  partial core-charges read in
  partial kinetic energy density read in
  atomic valenz-charges read in
  non local Contribution for L=           0  read in
    real space projection operators read in
  non local Contribution for L=           0  read in
    real space projection operators read in
  non local Contribution for L=           1  read in
    real space projection operators read in
  non local Contribution for L=           1  read in
    real space projection operators read in
  non local Contribution for L=           2  read in
    real space projection operators read in
  non local Contribution for L=           2  read in
    real space projection operators read in
    PAW grid and wavefunctions read in
 
   number of l-projection  operators is LMAX  =           6
   number of lm-projection operators is LMMAX =          18
 
 POTCAR:    PAW_PBE Cl 06Sep2000                  
   VRHFIN =Cl: s2p5                                                             
   LEXCH  = PE                                                                  
   EATOM  =   409.7259 eV,   30.1140 Ry                                         
                                                                                
   TITEL  = PAW_PBE Cl 06Sep2000                                                
   LULTRA =        F    use ultrasoft PP ?                                      
   IUNSCR =        1    unscreen: 0-lin 1-nonlin 2-no                           
   RPACOR =    1.500    partial core radius                                     
   POMASS =   35.453; ZVAL   =    7.000    mass and valenz                      
   RCORE  =    1.900    outmost cutoff radius                                   
   RWIGS  =    2.100; RWIGS  =    1.111    wigner-seitz radius (au A)           
   ENMAX  =  262.472; ENMIN  =  196.854 eV                                      
   ICORE  =        2    local potential                                         
   LCOR   =        T    correct aug charges                                     
   LPAW   =        T    paw PP                                                  
   EAUG   =  356.192                                                            
   DEXC   =    0.000                                                            
   RMAX   =    1.945    core radius for proj-oper                               
   RAUG   =    1.300    factor for augmentation sphere                          
   RDEP   =    2.020    radius for radial grids                                 
   RDEPT  =    1.678    core radius for aug-charge                              
                                                                                
   Atomic configuration                                                         
    6 entries                                                                   
     n  l   j            E        occ.                                          
     1  0  0.50     -2751.1850   2.0000                                         
     2  0  0.50      -252.6861   2.0000                                         
     2  1  1.50      -191.6157   6.0000                                         
     3  0  0.50       -20.6916   2.0000                                         
     3  1  0.50        -8.5949   5.0000                                         
     3  2  1.50        -8.1635   0.0000                                         
   Description                                                                  
     l       E           TYP  RCUT    TYP  RCUT                                 
     0    -20.6915656     23  1.900                                             
     0    -22.0521482     23  1.900                                             
     1     -8.5948577     23  1.900                                             
     1     -5.3847331     23  1.900                                             
     2     -8.1634956     23  1.900                                             
  local pseudopotential read in
  partial core-charges read in
  partial kinetic energy density read in
  atomic valenz-charges read in
  non local Contribution for L=           0  read in
    real space projection operators read in
  non local Contribution for L=           0  read in
    real space projection operators read in
  non local Contribution for L=           1  read in
    real space projection operators read in
  non local Contribution for L=           1  read in
    real space projection operators read in
    PAW grid and wavefunctions read in
 
   number of l-projection  operators is LMAX  =           4
   number of lm-projection operators is LMMAX =           8
 

 ----------------------------------------------------------------------------- 
|                                                                             |
|  ADVICE TO THIS USER RUNNING 'VASP/VAMP'   (HEAR YOUR MASTER'S VOICE ...):  |
|                                                                             |
|      You have a (more or less) 'small supercell' and for smaller cells      |
|      it is recommended  to use the reciprocal-space projection scheme!      |
|      The real space optimization is not  efficient for small cells and it   |
|      is also less accurate ...                                              |
|      Therefore set LREAL=.FALSE. in the  INCAR file                         |
|                                                                             |
 ----------------------------------------------------------------------------- 

 Optimization of the real space projectors (new method)

 maximal supplied QI-value         = 15.68
 optimisation between [QCUT,QGAM] = [ 10.82, 21.64] = [ 32.80,131.19] Ry 
 Optimized for a Real-space Cutoff    1.65 Angstroem

   l    n(q)    QCUT    max X(q) W(low)/X(q) W(high)/X(q)  e(spline) 
   0     11    10.822    10.201    0.23E-04    0.55E-05    0.31E-07
   0     11    10.822     8.174    0.35E-04    0.99E-05    0.65E-07
   1     10    10.822     3.488    0.18E-04    0.21E-04    0.55E-07
   1     10    10.822     4.917    0.15E-03    0.13E-03    0.29E-06
   2     10    10.822   153.744    0.28E-03    0.15E-03    0.13E-05
   2     10    10.822   126.342    0.28E-03    0.15E-03    0.13E-05
 Optimization of the real space projectors (new method)

 maximal supplied QI-value         = 19.84
 optimisation between [QCUT,QGAM] = [ 10.71, 21.63] = [ 32.15,130.99] Ry 
 Optimized for a Real-space Cutoff    1.19 Angstroem

   l    n(q)    QCUT    max X(q) W(low)/X(q) W(high)/X(q)  e(spline) 
   0      8    10.715   168.010    0.38E-03    0.52E-04    0.59E-07
   0      8    10.715   164.674    0.37E-03    0.50E-04    0.57E-07
   1      7    10.715    69.222    0.20E-03    0.59E-03    0.70E-07
   1      7    10.715    56.786    0.19E-03    0.58E-03    0.68E-07
  PAW_PBE Nb_sv 25May2007               :
 energy of atom  1       EATOM=-1555.1913
 kinetic energy error for atom=    0.0113 (will be added to EATOM!!)
  PAW_PBE Cl 06Sep2000                  :
 energy of atom  2       EATOM= -409.7259
 kinetic energy error for atom=    0.0057 (will be added to EATOM!!)
 
 
 POSCAR: Nb Cell                                 
  positions in direct lattice
  No initial velocities read in
 exchange correlation table for  LEXCH =        8
   RHO(1)=    0.500       N(1)  =     2000
   RHO(2)=  100.500       N(2)  =     4000
 


--------------------------------------------------------------------------------------------------------


 ion  position               nearest neighbor table
   1  0.500  0.550  0.550-   2 2.03   3 2.03   5 2.12   6 2.12   4 2.49
   2  0.500  0.454  0.646-   1 2.03
   3  0.500  0.646  0.454-   1 2.03
   4  0.650  0.500  0.500-   6 2.49   1 2.49
   5  0.500  0.650  0.650-   1 2.12
   6  0.500  0.450  0.450-   1 2.12   4 2.49
 
  LATTYP: Found a simple cubic cell.
 ALAT       =    15.0000000000
  
  Lattice vectors:
  
 A1 = (  15.0000000000,   0.0000000000,   0.0000000000)
 A2 = (   0.0000000000,  15.0000000000,   0.0000000000)
 A3 = (   0.0000000000,   0.0000000000,  15.0000000000)


Analysis of symmetry for initial positions (statically):
=====================================================================
 Subroutine PRICEL returns:
 Original cell was already a primitive cell.
 

 Routine SETGRP: Setting up the symmetry group for a 
 simple cubic supercell.


 Subroutine GETGRP returns: Found  2 space group operations
 (whereof  2 operations were pure point group operations)
 out of a pool of 48 trial point group operations.


The static configuration has the point symmetry C_1h.


Analysis of symmetry for dynamics (positions and initial velocities):
=====================================================================
 Subroutine PRICEL returns:
 Original cell was already a primitive cell.
 

 Routine SETGRP: Setting up the symmetry group for a 
 simple cubic supercell.


 Subroutine GETGRP returns: Found  2 space group operations
 (whereof  2 operations were pure point group operations)
 out of a pool of 48 trial point group operations.


The dynamic configuration has the point symmetry C_1h.


Analysis of structural, dynamic, and magnetic symmetry:
=====================================================================
 Subroutine PRICEL returns:
 Original cell was already a primitive cell.
 

 Routine SETGRP: Setting up the symmetry group for a 
 simple cubic supercell.


 Subroutine GETGRP returns: Found  2 space group operations
 (whereof  2 operations were pure point group operations)
 out of a pool of 48 trial point group operations.


The magnetic configuration has the point symmetry C_1h.


 Subroutine INISYM returns: Found  2 space group operations
 (whereof  2 operations are pure point group operations),
 and found     1 'primitive' translations

 
 
 KPOINTS: k-points                                

Automatic generation of k-mesh.
Space group operators:
 irot       det(A)        alpha          n_x          n_y          n_z        tau_x        tau_y        tau_z
    1     1.000000     0.000000     1.000000     0.000000     0.000000     0.000000     0.000000     0.000000
    2    -1.000000   180.000000     0.000000    -0.707107     0.707107     0.000000     0.000000     0.000000
 
 Subroutine IBZKPT returns following result:
 ===========================================
 
 Found      1 irreducible k-points:
 
 Following reciprocal coordinates:
            Coordinates               Weight
  0.000000  0.000000  0.000000      1.000000
 
 Following cartesian coordinates:
            Coordinates               Weight
  0.000000  0.000000  0.000000      1.000000
 


--------------------------------------------------------------------------------------------------------




 Dimension of arrays:
   k-points           NKPTS =      1   k-points in BZ     NKDIM =      1   number of bands    NBANDS=     32
   number of dos      NEDOS =    301   number of ions     NIONS =      6
   non local maximal  LDIM  =      6   non local SUM 2l+1 LMDIM =     18
   total plane-waves  NPLWV = 512000
   max r-space proj   IRMAX =   2898   max aug-charges    IRDMAX=   6623
   dimension x,y,z NGX =    80 NGY =   80 NGZ =   80
   dimension x,y,z NGXF=   160 NGYF=  160 NGZF=  160
   support grid    NGXF=   160 NGYF=  160 NGZF=  160
   ions per type =               1   5
 NGX,Y,Z   is equivalent  to a cutoff of   8.87,  8.87,  8.87 a.u.
 NGXF,Y,Z  is equivalent  to a cutoff of  17.73, 17.73, 17.73 a.u.


 I would recommend the setting:
   dimension x,y,z NGX =    78 NGY =   78 NGZ =   78
 SYSTEM =  clean (100) surface                     
 POSCAR =  Nb Cell                                 

 Startparameter for this run:
   NWRITE =      2    write-flag & timer
   PREC   = normal    normal or accurate (medium, high low for compatibility)
   ISTART =      0    job   : 0-new  1-cont  2-samecut
   ICHARG =      2    charge: 1-file 2-atom 10-const
   ISPIN  =      2    spin polarized calculation?
   LNONCOLLINEAR =      F non collinear calculations
   LSORBIT =      F    spin-orbit coupling
   INIWAV =      1    electr: 0-lowe 1-rand  2-diag
   LASPH  =      F    aspherical Exc in radial PAW
   METAGGA=      F    non-selfconsistent MetaGGA calc.

 Electronic Relaxation 1
   ENCUT  =  450.0 eV  33.07 Ry    5.75 a.u.  25.95 25.95 25.95*2*pi/ulx,y,z
   ENINI  =  450.0     initial cutoff
   ENAUG  =  455.7 eV  augmentation charge cutoff
   NELM   =     60;   NELMIN=  2; NELMDL= -5     # of ELM steps 
   EDIFF  = 0.1E-05   stopping-criterion for ELM
   LREAL  =      T    real-space projection
   NLSPLINE    = F    spline interpolate recip. space projectors
   LCOMPAT=      F    compatible to vasp.4.4
   GGA_COMPAT  = T    GGA compatible to vasp.4.4-vasp.4.6
   LMAXPAW     = -100 max onsite density
   LMAXMIX     =    2 max onsite mixed and CHGCAR
   VOSKOWN=      0    Vosko Wilk Nusair interpolation
   ROPT   =   -0.00050  -0.00050
 Ionic relaxation
   EDIFFG = -.1E-01   stopping-criterion for IOM
   NSW    =    250    number of steps for IOM
   NBLOCK =      1;   KBLOCK =    250    inner block; outer block 
   IBRION =      2    ionic relax: 0-MD 1-quasi-New 2-CG
   NFREE  =      1    steps in history (QN), initial steepest desc. (CG)
   ISIF   =      2    stress and relaxation
   IWAVPR =     11    prediction:  0-non 1-charg 2-wave 3-comb
   ISYM   =      2    0-nonsym 1-usesym 2-fastsym
   LCORR  =      T    Harris-Foulkes like correction to forces

   POTIM  = 0.1000    time-step for ionic-motion
   TEIN   =    0.0    initial temperature
   TEBEG  =    0.0;   TEEND  =   0.0 temperature during run
   SMASS  =  -3.00    Nose mass-parameter (am)
   estimated Nose-frequenzy (Omega)   =  0.10E-29 period in steps =****** mass=  -0.514E-26a.u.
   SCALEE = 1.0000    scale energy and forces
   NPACO  =    256;   APACO  = 16.0  distance and # of slots for P.C.
   PSTRESS=    0.0 pullay stress

  Mass of Ions in am
   POMASS =  92.91 35.45
  Ionic Valenz
   ZVAL   =  13.00  7.00
  Atomic Wigner-Seitz radii
   RWIGS  =  -1.00 -1.00
  virtual crystal weights 
   VCA    =   1.00  1.00
   NELECT =      48.0000    total number of electrons
   NUPDOWN=      -1.0000    fix difference up-down

 DOS related values:
   EMIN   =  10.00;   EMAX   =-10.00  energy-range for DOS
   EFERMI =   0.00
   ISMEAR =     2;   SIGMA  =   0.20  broadening in eV -4-tet -1-fermi 0-gaus

 Electronic relaxation 2 (details)
   IALGO  =     68    algorithm
   LDIAG  =      T    sub-space diagonalisation (order eigenvalues)
   LSUBROT=      F    optimize rotation matrix (better conditioning)
   TURBO    =      0    0=normal 1=particle mesh
   IRESTART =      0    0=no restart 2=restart with 2 vectors
   NREBOOT  =      0    no. of reboots
   NMIN     =      0    reboot dimension
   EREF     =   0.00    reference energy to select bands
   IMIX   =      4    mixing-type and parameters
     AMIX     =   0.40;   BMIX     =  1.00
     AMIX_MAG =   1.60;   BMIX_MAG =  1.00
     AMIN     =   0.10
     WC   =   100.;   INIMIX=   1;  MIXPRE=   1;  MAXMIX= -45

 Intra band minimization:
   WEIMIN = 0.0010     energy-eigenvalue tresh-hold
   EBREAK =  0.78E-08  absolut break condition
   DEPER  =   0.30     relativ break condition  

   TIME   =   0.40     timestep for ELM

  volume/ion in A,a.u.               =     562.50      3795.94
  Fermi-wavevector in a.u.,A,eV,Ry     =   0.396641  0.749542  2.140521  0.157324
  Thomas-Fermi vector in A             =   1.342927
 
 Write flags
   LWAVE  =      F    write WAVECAR
   LCHARG =      F    write CHGCAR
   LVTOT  =      F    write LOCPOT, total local potential
   LVHAR  =      F    write LOCPOT, Hartree potential only
   LELF   =      F    write electronic localiz. function (ELF)
   LORBIT =      0    0 simple, 1 ext, 2 COOP (PROOUT)


 Dipole corrections
   LMONO  =      F    monopole corrections only (constant potential shift)
   LDIPOL =      F    correct potential (dipole corrections)
   IDIPOL =      0    1-x, 2-y, 3-z, 4-all directions 
   EPSILON=  1.0000000 bulk dielectric constant

 Exchange correlation treatment:
   GGA     =    --    GGA type
   LEXCH   =     8    internal setting for exchange type
   VOSKOWN=      0    Vosko Wilk Nusair interpolation
   LHFCALC =     F    Hartree Fock is set to
   LHFONE  =     F    Hartree Fock one center treatment
   AEXX    =    0.0000 exact exchange contribution

 Linear response parameters
   LEPSILON=     F    determine dielectric tensor
   LRPA    =     F    only Hartree local field effects (RPA)
   LNABLA  =     F    use nabla operator in PAW spheres
   LVEL    =     F    velocity operator in full k-point grid
   LINTERFAST=   F  fast interpolation
   KINTER  =     0    interpolate to denser k-point grid
   CSHIFT  =0.1000    complex shift for real part using Kramers Kronig
   OMEGAMAX=  -1.0    maximum frequency
   DEG_THRESHOLD= 0.2000000E-02 threshold for treating states as degnerate
   RTIME   =    0.100 relaxation time in fs

 Orbital magnetization related:
   ORBITALMAG=     F  switch on orbital magnetization
   LCHIMAG   =     F  perturbation theory with respect to B field
   DQ        =  0.001000  dq finite difference perturbation B field



--------------------------------------------------------------------------------------------------------


 conjugate gradient relaxation of ions
 charge density and potential will be updated during run
 spin polarized calculation
 RMM-DIIS sequential band-by-band and
  variant of blocked Davidson during initial phase
 perform sub-space diagonalisation
    before iterative eigenvector-optimisation
 modified Broyden-mixing scheme, WC =      100.0
 initial mixing is a Kerker type mixing with AMIX =  0.4000 and BMIX =      1.0000
 Hartree-type preconditioning will be used
 using additional bands            8
 real space projection scheme for non local part
 use partial core corrections
 calculate Harris-corrections to forces 
   (improved forces if not selfconsistent)
 use gradient corrections 
 use of overlap-Matrix (Vanderbilt PP)
 Methfessel and Paxton  Order N= 2 SIGMA  =   0.20


--------------------------------------------------------------------------------------------------------


  energy-cutoff  :      450.00
  volume of cell :     3375.00
      direct lattice vectors                 reciprocal lattice vectors
    15.000000000  0.000000000  0.000000000     0.066666667  0.000000000  0.000000000
     0.000000000 15.000000000  0.000000000     0.000000000  0.066666667  0.000000000
     0.000000000  0.000000000 15.000000000     0.000000000  0.000000000  0.066666667

  length of vectors
    15.000000000 15.000000000 15.000000000     0.066666667  0.066666667  0.066666667


 
 k-points in units of 2pi/SCALE and weight: k-points                                
   0.00000000  0.00000000  0.00000000       1.000
 
 k-points in reciprocal lattice and weights: k-points                                
   0.00000000  0.00000000  0.00000000       1.000
 
 position of ions in fractional coordinates (direct lattice) 
   0.50000000  0.55002624  0.55002624
   0.50000000  0.45417254  0.64580122
   0.50000000  0.64580122  0.45417254
   0.65000000  0.50000000  0.50000000
   0.50000000  0.65000000  0.65000000
   0.50000000  0.45000000  0.45000000
 
 position of ions in cartesian coordinates  (Angst):
   7.50000000  8.25039359  8.25039359
   7.50000000  6.81258808  9.68701833
   7.50000000  9.68701833  6.81258808
   9.75000000  7.50000000  7.50000000
   7.50000000  9.75000000  9.75000000
   7.50000000  6.75000000  6.75000000
 


--------------------------------------------------------------------------------------------------------


 k-point  1 :   0.0000 0.0000 0.0000  plane waves:   72935

 maximum and minimum number of plane-waves per node :      3049     3028

 maximum number of plane-waves:     72935
 maximum index in each direction: 
   IXMAX=   25   IYMAX=   25   IZMAX=   25
   IXMIN=  -25   IYMIN=  -25   IZMIN=  -25

 WARNING: aliasing errors must be expected set NGX to 102 to avoid them
 WARNING: aliasing errors must be expected set NGY to 102 to avoid them
 WARNING: aliasing errors must be expected set NGZ to 102 to avoid them
 aliasing errors are usually negligible using standard VASP settings
 and one can safely disregard these warnings

 real space projection operators:
  total allocation   :        713.08 KBytes
  max/ min on nodes  :         64.14          6.06


 parallel 3D FFT for wavefunctions:
    minimum data exchange during FFTs selected (reduces bandwidth)
 parallel 3D FFT for charge:
    minimum data exchange during FFTs selected (reduces bandwidth)


 total amount of memory used by VASP on root node    39782. kBytes
========================================================================

   base      :      30000. kBytes
   nonlr-proj:        304. kBytes
   fftplans  :       2467. kBytes
   grid      :       6195. kBytes
   one-center:         31. kBytes
   wavefun   :        785. kBytes
 
     INWAV:  cpu time    0.0000: real time    0.0000
 Broyden mixing: mesh for mixing (old mesh)
   NGX = 51   NGY = 51   NGZ = 51
  (NGX  =160   NGY  =160   NGZ  =160)
  gives a total of 132651 points

 initial charge density was supplied:
 charge density of overlapping atoms calculated
 number of electron      48.0000000 magnetization       6.0000000
 keeping initial charge density in first step


--------------------------------------------------------------------------------------------------------


 Maximum index for non-local projection operator           69
 Maximum index for augmentation-charges          113 (set IRDMAX)


--------------------------------------------------------------------------------------------------------


 First call to EWALD:  gamma=   0.118
 Maximum number of real-space cells 3x 3x 3
 Maximum number of reciprocal cells 3x 3x 3

 FEWALD executed in parallel
    FEWALD:  cpu time    0.0022: real time    0.0056


----------------------------------------- Iteration    1(   1)  ---------------------------------------


    POTLOK:  cpu time    0.0805: real time    0.1151
    SETDIJ:  cpu time    0.0238: real time    0.0292
     EDDAV:  cpu time    0.1908: real time    0.3582
       DOS:  cpu time    0.0036: real time    0.0112
    --------------------------------------------
      LOOP:  cpu time    0.3030: real time    0.5342

 eigenvalue-minimisations  :   160
 total energy-change (2. order) : 0.4845955E+03  (-0.1198285E+04)
 number of electron      48.0000000 magnetization       6.0000000
 augmentation part       48.0000000 magnetization       6.0000000

 Free energy of the ion-electron system (eV)
  ---------------------------------------------------
  alpha Z        PSCENC =         3.77621084
  Ewald energy   TEWEN  =      2185.82160436
  -Hartree energ DENC   =     -5150.02136301
  -exchange      EXHF   =         0.00000000
  -V(xc)+E(xc)   XCENC  =       157.99833548
  PAW double counting   =      2859.68238438    -2841.16719484
  entropy T*S    EENTRO =        -0.02343931
  eigenvalues    EBANDS =      -335.25202715
  atomic energy  EATOM  =      3603.78094172
  Solvation  Ediel_sol  =         0.00000000
  ---------------------------------------------------
  free energy    TOTEN  =       484.59545247 eV

  energy without entropy =      484.61889178  energy(sigma->0) =      484.60131230


--------------------------------------------------------------------------------------------------------




----------------------------------------- Iteration    1(   2)  ---------------------------------------


     EDDAV:  cpu time    0.1542: real time    0.1572
       DOS:  cpu time    0.0002: real time    0.0002
    --------------------------------------------
      LOOP:  cpu time    0.1556: real time    0.1894

 eigenvalue-minimisations  :   192
 total energy-change (2. order) :-0.3027749E+03  (-0.2871940E+03)
 number of electron      48.0000000 magnetization       6.0000000
 augmentation part       48.0000000 magnetization       6.0000000

 Free energy of the ion-electron system (eV)
  ---------------------------------------------------
  alpha Z        PSCENC =         3.77621084
  Ewald energy   TEWEN  =      2185.82160436
  -Hartree energ DENC   =     -5150.02136301
  -exchange      EXHF   =         0.00000000
  -V(xc)+E(xc)   XCENC  =       157.99833548
  PAW double counting   =      2859.68238438    -2841.16719484
  entropy T*S    EENTRO =        -0.03232780
  eigenvalues    EBANDS =      -638.01808242
  atomic energy  EATOM  =      3603.78094172
  Solvation  Ediel_sol  =         0.00000000
  ---------------------------------------------------
  free energy    TOTEN  =       181.82050871 eV

  energy without entropy =      181.85283651  energy(sigma->0) =      181.82859066


--------------------------------------------------------------------------------------------------------




----------------------------------------- Iteration    1(   3)  ---------------------------------------


     EDDAV:  cpu time    0.1591: real time    0.1591
       DOS:  cpu time    0.0002: real time    0.0002
    --------------------------------------------
      LOOP:  cpu time    0.1602: real time    0.1804

 eigenvalue-minimisations  :   200
 total energy-change (2. order) :-0.1773215E+03  (-0.1724040E+03)
 number of electron      48.0000000 magnetization       6.0000000
 augmentation part       48.0000000 magnetization       6.0000000

 Free energy of the ion-electron system (eV)
  ---------------------------------------------------
  alpha Z        PSCENC =         3.77621084
  Ewald energy   TEWEN  =      2185.82160436
  -Hartree energ DENC   =     -5150.02136301
  -exchange      EXHF   =         0.00000000
  -V(xc)+E(xc)   XCENC  =       157.99833548
  PAW double counting   =      2859.68238438    -2841.16719484
  entropy T*S    EENTRO =         0.00550610
  eigenvalues    EBANDS =      -815.37745504
  atomic energy  EATOM  =      3603.78094172
  Solvation  Ediel_sol  =         0.00000000
  ---------------------------------------------------
  free energy    TOTEN  =         4.49897000 eV

  energy without entropy =        4.49346390  energy(sigma->0) =        4.49759347


--------------------------------------------------------------------------------------------------------




----------------------------------------- Iteration    1(   4)  ---------------------------------------


     EDDAV:  cpu time    0.1385: real time    0.1428
       DOS:  cpu time    0.0002: real time    0.0002
    --------------------------------------------
      LOOP:  cpu time    0.1397: real time    0.1751

 eigenvalue-minimisations  :   168
 total energy-change (2. order) :-0.2717795E+02  (-0.2701084E+02)
 number of electron      48.0000000 magnetization       6.0000000
 augmentation part       48.0000000 magnetization       6.0000000

 Free energy of the ion-electron system (eV)
  ---------------------------------------------------
  alpha Z        PSCENC =         3.77621084
  Ewald energy   TEWEN  =      2185.82160436
  -Hartree energ DENC   =     -5150.02136301
  -exchange      EXHF   =         0.00000000
  -V(xc)+E(xc)   XCENC  =       157.99833548
  PAW double counting   =      2859.68238438    -2841.16719484
  entropy T*S    EENTRO =         0.00550610
  eigenvalues    EBANDS =      -842.55540549
  atomic energy  EATOM  =      3603.78094172
  Solvation  Ediel_sol  =         0.00000000
  ---------------------------------------------------
  free energy    TOTEN  =       -22.67898045 eV

  energy without entropy =      -22.68448655  energy(sigma->0) =      -22.68035697


--------------------------------------------------------------------------------------------------------




----------------------------------------- Iteration    1(   5)  ---------------------------------------


     EDDAV:  cpu time    0.1634: real time    0.1634
       DOS:  cpu time    0.0002: real time    0.0002
    CHARGE:  cpu time    0.0970: real time    0.1039
    MIXING:  cpu time    0.0078: real time    0.0116
    --------------------------------------------
      LOOP:  cpu time    0.2696: real time    0.2866

 eigenvalue-minimisations  :   208
 total energy-change (2. order) :-0.8268700E+00  (-0.8220354E+00)
 number of electron      47.9999968 magnetization       4.5670180
 augmentation part       -3.7687106 magnetization       4.5570688

 Broyden mixing:
  rms(total) = 0.21316E+01    rms(broyden)= 0.21315E+01
  rms(prec ) = 0.22269E+01
  weight for this iteration     100.00

 Free energy of the ion-electron system (eV)
  ---------------------------------------------------
  alpha Z        PSCENC =         3.77621084
  Ewald energy   TEWEN  =      2185.82160436
  -Hartree energ DENC   =     -5150.02136301
  -exchange      EXHF   =         0.00000000
  -V(xc)+E(xc)   XCENC  =       157.99833548
  PAW double counting   =      2859.68238438    -2841.16719484
  entropy T*S    EENTRO =         0.00550610
  eigenvalues    EBANDS =      -843.38227552
  atomic energy  EATOM  =      3603.78094172
  Solvation  Ediel_sol  =         0.00000000
  ---------------------------------------------------
  free energy    TOTEN  =       -23.50585048 eV

  energy without entropy =      -23.51135659  energy(sigma->0) =      -23.50722701


--------------------------------------------------------------------------------------------------------




----------------------------------------- Iteration    1(   6)  ---------------------------------------


    POTLOK:  cpu time    0.0673: real time    0.0673
    SETDIJ:  cpu time    0.0039: real time    0.0039
    EDDIAG:  cpu time    0.0288: real time    0.0312
  RMM-DIIS:  cpu time    0.1083: real time    0.1098
    ORTHCH:  cpu time    0.0054: real time    0.0055
       DOS:  cpu time    0.0002: real time    0.0002
    CHARGE:  cpu time    0.0902: real time    0.0902
    MIXING:  cpu time    0.0027: real time    0.0034
    --------------------------------------------
      LOOP:  cpu time    0.3083: real time    0.3351

 eigenvalue-minimisations  :   141
 total energy-change (2. order) : 0.1350908E+02  (-0.2374482E+01)
 number of electron      47.9999970 magnetization       3.2180479
 augmentation part       -3.5039751 magnetization       3.2776528

 Broyden mixing:
  rms(total) = 0.11456E+01    rms(broyden)= 0.11456E+01
  rms(prec ) = 0.11717E+01
  weight for this iteration     100.00

 eigenvalues of (default mixing * dielectric matrix)
  average eigenvalue GAMMA=   1.0580
  1.0580

 Free energy of the ion-electron system (eV)
  ---------------------------------------------------
  alpha Z        PSCENC =         3.77621084
  Ewald energy   TEWEN  =      2185.82160436
  -Hartree energ DENC   =     -5141.47950005
  -exchange      EXHF   =         0.00000000
  -V(xc)+E(xc)   XCENC  =       167.19921637
  PAW double counting   =      3476.30607463    -3459.21990504
  entropy T*S    EENTRO =         0.00539643
  eigenvalues    EBANDS =      -846.18680913
  atomic energy  EATOM  =      3603.78094172
  Solvation  Ediel_sol  =         0.00000000
  ---------------------------------------------------
  free energy    TOTEN  =        -9.99676987 eV

  energy without entropy =      -10.00216630  energy(sigma->0) =       -9.99811898


--------------------------------------------------------------------------------------------------------




----------------------------------------- Iteration    1(   7)  ---------------------------------------


    POTLOK:  cpu time    0.0648: real time    0.0648
    SETDIJ:  cpu time    0.0038: real time    0.0038
    EDDIAG:  cpu time    0.0249: real time    0.0250
  RMM-DIIS:  cpu time    0.0812: real time    0.0812
    ORTHCH:  cpu time    0.0055: real time    0.0055
       DOS:  cpu time    0.0002: real time    0.0002
    CHARGE:  cpu time    0.0834: real time    0.0834
    MIXING:  cpu time    0.0020: real time    0.0033
    --------------------------------------------
      LOOP:  cpu time    0.2671: real time    0.2810

 eigenvalue-minimisations  :   144
 total energy-change (2. order) :-0.3710270E+01  (-0.3306424E+00)
 number of electron      47.9999970 magnetization       2.1778037
 augmentation part       -3.5273826 magnetization       2.2316071

 Broyden mixing:
  rms(total) = 0.65210E+00    rms(broyden)= 0.65209E+00
  rms(prec ) = 0.65947E+00
  weight for this iteration     100.00

 eigenvalues of (default mixing * dielectric matrix)
  average eigenvalue GAMMA=   1.0601
  1.4815  0.6387

 Free energy of the ion-electron system (eV)
  ---------------------------------------------------
  alpha Z        PSCENC =         3.77621084
  Ewald energy   TEWEN  =      2185.82160436
  -Hartree energ DENC   =     -5164.87961785
  -exchange      EXHF   =         0.00000000
  -V(xc)+E(xc)   XCENC  =       165.13124466
  PAW double counting   =      4109.13567219    -4091.29321839
  entropy T*S    EENTRO =         0.00447960
  eigenvalues    EBANDS =      -825.18435704
  atomic energy  EATOM  =      3603.78094172
  Solvation  Ediel_sol  =         0.00000000
  ---------------------------------------------------
  free energy    TOTEN  =       -13.70703990 eV

  energy without entropy =      -13.71151950  energy(sigma->0) =      -13.70815980


--------------------------------------------------------------------------------------------------------




----------------------------------------- Iteration    1(   8)  ---------------------------------------


    POTLOK:  cpu time    0.0648: real time    0.0648
    SETDIJ:  cpu time    0.0036: real time    0.0036
    EDDIAG:  cpu time    0.0245: real time    0.0245
  RMM-DIIS:  cpu time    0.0810: real time    0.0810
    ORTHCH:  cpu time    0.0055: real time    0.0055
       DOS:  cpu time    0.0002: real time    0.0002
    CHARGE:  cpu time    0.0818: real time    0.0818
    MIXING:  cpu time    0.0020: real time    0.0020
    --------------------------------------------
      LOOP:  cpu time    0.2646: real time    0.2918

 eigenvalue-minimisations  :   147
 total energy-change (2. order) :-0.3614308E+01  (-0.2120023E+00)
 number of electron      47.9999970 magnetization       1.4552442
 augmentation part       -3.5487241 magnetization       1.3845267

 Broyden mixing:
  rms(total) = 0.32019E+00    rms(broyden)= 0.32019E+00
  rms(prec ) = 0.32596E+00
  weight for this iteration     100.00

 eigenvalues of (default mixing * dielectric matrix)
  average eigenvalue GAMMA=   1.2223
  2.0887  0.9885  0.5897

 Free energy of the ion-electron system (eV)
  ---------------------------------------------------
  alpha Z        PSCENC =         3.77621084
  Ewald energy   TEWEN  =      2185.82160436
  -Hartree energ DENC   =     -5176.41374191
  -exchange      EXHF   =         0.00000000
  -V(xc)+E(xc)   XCENC  =       162.75635035
  PAW double counting   =      4497.41154857    -4478.69318653
  entropy T*S    EENTRO =         0.01257470
  eigenvalues    EBANDS =      -815.77365044
  atomic energy  EATOM  =      3603.78094172
  Solvation  Ediel_sol  =         0.00000000
  ---------------------------------------------------
  free energy    TOTEN  =       -17.32134833 eV

  energy without entropy =      -17.33392303  energy(sigma->0) =      -17.32449200


--------------------------------------------------------------------------------------------------------




----------------------------------------- Iteration    1(   9)  ---------------------------------------


    POTLOK:  cpu time    0.0649: real time    0.0649
    SETDIJ:  cpu time    0.0037: real time    0.0036
    EDDIAG:  cpu time    0.0244: real time    0.0244
  RMM-DIIS:  cpu time    0.0812: real time    0.0812
    ORTHCH:  cpu time    0.0055: real time    0.0055
       DOS:  cpu time    0.0002: real time    0.0002
    CHARGE:  cpu time    0.0821: real time    0.0821
    MIXING:  cpu time    0.0021: real time    0.0021
    --------------------------------------------
      LOOP:  cpu time    0.2652: real time    0.2940

 eigenvalue-minimisations  :   148
 total energy-change (2. order) :-0.2008793E+01  (-0.1101643E+00)
 number of electron      47.9999970 magnetization       0.8999096
 augmentation part       -3.5516299 magnetization       0.8367986

 Broyden mixing:
  rms(total) = 0.12138E+00    rms(broyden)= 0.12137E+00
  rms(prec ) = 0.13026E+00
  weight for this iteration     100.00

 eigenvalues of (default mixing * dielectric matrix)
  average eigenvalue GAMMA=   1.2817
  2.3948  1.3064  0.8027  0.6228

 Free energy of the ion-electron system (eV)
  ---------------------------------------------------
  alpha Z        PSCENC =         3.77621084
  Ewald energy   TEWEN  =      2185.82160436
  -Hartree energ DENC   =     -5178.48585648
  -exchange      EXHF   =         0.00000000
  -V(xc)+E(xc)   XCENC  =       161.33081982
  PAW double counting   =      4684.60599807    -4665.16333326
  entropy T*S    EENTRO =         0.01132640
  eigenvalues    EBANDS =      -815.00785314
  atomic energy  EATOM  =      3603.78094172
  Solvation  Ediel_sol  =         0.00000000
  ---------------------------------------------------
  free energy    TOTEN  =       -19.33014167 eV

  energy without entropy =      -19.34146807  energy(sigma->0) =      -19.33297327


--------------------------------------------------------------------------------------------------------




----------------------------------------- Iteration    1(  10)  ---------------------------------------


    POTLOK:  cpu time    0.0651: real time    0.0651
    SETDIJ:  cpu time    0.0036: real time    0.0036
    EDDIAG:  cpu time    0.0247: real time    0.0247
  RMM-DIIS:  cpu time    0.0767: real time    0.0767
    ORTHCH:  cpu time    0.0054: real time    0.0054
       DOS:  cpu time    0.0002: real time    0.0002
    CHARGE:  cpu time    0.0818: real time    0.0818
    MIXING:  cpu time    0.0023: real time    0.0023
    --------------------------------------------
      LOOP:  cpu time    0.2611: real time    0.2675

 eigenvalue-minimisations  :   141
 total energy-change (2. order) :-0.8891792E+00  (-0.4204321E-01)
 number of electron      47.9999970 magnetization       0.6549256
 augmentation part       -3.5633138 magnetization       0.5579602

 Broyden mixing:
  rms(total) = 0.57821E-01    rms(broyden)= 0.57816E-01
  rms(prec ) = 0.62968E-01
  weight for this iteration     100.00

 eigenvalues of (default mixing * dielectric matrix)
  average eigenvalue GAMMA=   1.2439
  2.5048  1.5336  0.8685  0.6999  0.6124

 Free energy of the ion-electron system (eV)
  ---------------------------------------------------
  alpha Z        PSCENC =         3.77621084
  Ewald energy   TEWEN  =      2185.82160436
  -Hartree energ DENC   =     -5175.99919298
  -exchange      EXHF   =         0.00000000
  -V(xc)+E(xc)   XCENC  =       160.54290537
  PAW double counting   =      4745.94819417    -4725.82098772
  entropy T*S    EENTRO =         0.01268696
  eigenvalues    EBANDS =      -818.28168357
  atomic energy  EATOM  =      3603.78094172
  Solvation  Ediel_sol  =         0.00000000
  ---------------------------------------------------
  free energy    TOTEN  =       -20.21932084 eV

  energy without entropy =      -20.23200780  energy(sigma->0) =      -20.22249258


--------------------------------------------------------------------------------------------------------




----------------------------------------- Iteration    1(  11)  ---------------------------------------


    POTLOK:  cpu time    0.0661: real time    0.0661
    SETDIJ:  cpu time    0.0037: real time    0.0037
    EDDIAG:  cpu time    0.0245: real time    0.0245
  RMM-DIIS:  cpu time    0.0855: real time    0.0855
    ORTHCH:  cpu time    0.0055: real time    0.0055
       DOS:  cpu time    0.0002: real time    0.0002
    CHARGE:  cpu time    0.0818: real time    0.0818
    MIXING:  cpu time    0.0023: real time    0.0023
    --------------------------------------------
      LOOP:  cpu time    0.2708: real time    0.2962

 eigenvalue-minimisations  :   155
 total energy-change (2. order) :-0.4678267E+00  (-0.1374784E-01)
 number of electron      47.9999970 magnetization       0.4818503
 augmentation part       -3.5740730 magnetization       0.3952274

 Broyden mixing:
  rms(total) = 0.41204E-01    rms(broyden)= 0.41202E-01
  rms(prec ) = 0.44830E-01
  weight for this iteration     100.00

 eigenvalues of (default mixing * dielectric matrix)
  average eigenvalue GAMMA=   1.2270
  2.4979  1.7334  1.0452  0.8576  0.6620  0.5657

 Free energy of the ion-electron system (eV)
  ---------------------------------------------------
  alpha Z        PSCENC =         3.77621084
  Ewald energy   TEWEN  =      2185.82160436
  -Hartree energ DENC   =     -5174.76744939
  -exchange      EXHF   =         0.00000000
  -V(xc)+E(xc)   XCENC  =       160.07658144
  PAW double counting   =      4749.57834335    -4729.16957345
  entropy T*S    EENTRO =         0.01193837
  eigenvalues    EBANDS =      -819.79574481
  atomic energy  EATOM  =      3603.78094172
  Solvation  Ediel_sol  =         0.00000000
  ---------------------------------------------------
  free energy    TOTEN  =       -20.68714756 eV

  energy without entropy =      -20.69908594  energy(sigma->0) =      -20.69013216


--------------------------------------------------------------------------------------------------------




----------------------------------------- Iteration    1(  12)  ---------------------------------------


    POTLOK:  cpu time    0.0649: real time    0.0649
    SETDIJ:  cpu time    0.0037: real time    0.0037
    EDDIAG:  cpu time    0.0248: real time    0.0248
  RMM-DIIS:  cpu time    0.0849: real time    0.0849
    ORTHCH:  cpu time    0.0055: real time    0.0055
       DOS:  cpu time    0.0002: real time    0.0002
    CHARGE:  cpu time    0.0820: real time    0.0820
    MIXING:  cpu time    0.0024: real time    0.0024
    --------------------------------------------
      LOOP:  cpu time    0.2696: real time    0.3048

 eigenvalue-minimisations  :   151
 total energy-change (2. order) :-0.3270691E+00  (-0.4322838E-02)
 number of electron      47.9999970 magnetization       0.2706232
 augmentation part       -3.5798663 magnetization       0.1720718

 Broyden mixing:
  rms(total) = 0.27756E-01    rms(broyden)= 0.27755E-01
  rms(prec ) = 0.30586E-01
  weight for this iteration     100.00

 eigenvalues of (default mixing * dielectric matrix)
  average eigenvalue GAMMA=   1.3047
  2.3649  2.3649  1.2874  1.0939  0.8253  0.6453  0.5514

 Free energy of the ion-electron system (eV)
  ---------------------------------------------------
  alpha Z        PSCENC =         3.77621084
  Ewald energy   TEWEN  =      2185.82160436
  -Hartree energ DENC   =     -5173.79047333
  -exchange      EXHF   =         0.00000000
  -V(xc)+E(xc)   XCENC  =       159.71993367
  PAW double counting   =      4740.51319855    -4719.93322694
  entropy T*S    EENTRO =         0.01246661
  eigenvalues    EBANDS =      -820.91487216
  atomic energy  EATOM  =      3603.78094172
  Solvation  Ediel_sol  =         0.00000000
  ---------------------------------------------------
  free energy    TOTEN  =       -21.01421668 eV

  energy without entropy =      -21.02668328  energy(sigma->0) =      -21.01733333


--------------------------------------------------------------------------------------------------------




----------------------------------------- Iteration    1(  13)  ---------------------------------------


    POTLOK:  cpu time    0.0647: real time    0.0648
    SETDIJ:  cpu time    0.0036: real time    0.0036
    EDDIAG:  cpu time    0.0245: real time    0.0245
  RMM-DIIS:  cpu time    0.0814: real time    0.0814
    ORTHCH:  cpu time    0.0055: real time    0.0055
       DOS:  cpu time    0.0002: real time    0.0002
    CHARGE:  cpu time    0.0822: real time    0.0822
    MIXING:  cpu time    0.0026: real time    0.0026
    --------------------------------------------
      LOOP:  cpu time    0.2660: real time    0.2867

 eigenvalue-minimisations  :   152
 total energy-change (2. order) :-0.4080022E+00  (-0.4351147E-02)
 number of electron      47.9999970 magnetization       0.1642702
 augmentation part       -3.5826617 magnetization       0.0637118

 Broyden mixing:
  rms(total) = 0.14237E-01    rms(broyden)= 0.14236E-01
  rms(prec ) = 0.16186E-01
  weight for this iteration     100.00

 eigenvalues of (default mixing * dielectric matrix)
  average eigenvalue GAMMA=   1.3712
  2.7532  2.7532  1.6067  1.1530  0.8730  0.6717  0.6093  0.5497

 Free energy of the ion-electron system (eV)
  ---------------------------------------------------
  alpha Z        PSCENC =         3.77621084
  Ewald energy   TEWEN  =      2185.82160436
  -Hartree energ DENC   =     -5172.63673077
  -exchange      EXHF   =         0.00000000
  -V(xc)+E(xc)   XCENC  =       159.27409280
  PAW double counting   =      4728.75558921    -4707.95882730
  entropy T*S    EENTRO =         0.01243771
  eigenvalues    EBANDS =      -822.24753747
  atomic energy  EATOM  =      3603.78094172
  Solvation  Ediel_sol  =         0.00000000
  ---------------------------------------------------
  free energy    TOTEN  =       -21.42221889 eV

  energy without entropy =      -21.43465660  energy(sigma->0) =      -21.42532832


--------------------------------------------------------------------------------------------------------




----------------------------------------- Iteration    1(  14)  ---------------------------------------


    POTLOK:  cpu time    0.0648: real time    0.0648
    SETDIJ:  cpu time    0.0037: real time    0.0037
    EDDIAG:  cpu time    0.0248: real time    0.0248
  RMM-DIIS:  cpu time    0.0892: real time    0.0892
    ORTHCH:  cpu time    0.0056: real time    0.0056
       DOS:  cpu time    0.0002: real time    0.0002
    CHARGE:  cpu time    0.0823: real time    0.0823
    MIXING:  cpu time    0.0028: real time    0.0060
    --------------------------------------------
      LOOP:  cpu time    0.2745: real time    0.3076

 eigenvalue-minimisations  :   159
 total energy-change (2. order) :-0.1399921E+00  (-0.2234771E-02)
 number of electron      47.9999970 magnetization       0.1295722
 augmentation part       -3.5842851 magnetization       0.0277673

 Broyden mixing:
  rms(total) = 0.70624E-02    rms(broyden)= 0.70616E-02
  rms(prec ) = 0.89798E-02
  weight for this iteration     100.00

 eigenvalues of (default mixing * dielectric matrix)
  average eigenvalue GAMMA=   1.3732
  3.4059  2.4867  1.4667  1.4667  0.9866  0.7909  0.6361  0.5784  0.5409

 Free energy of the ion-electron system (eV)
  ---------------------------------------------------
  alpha Z        PSCENC =         3.77621084
  Ewald energy   TEWEN  =      2185.82160436
  -Hartree energ DENC   =     -5172.22813864
  -exchange      EXHF   =         0.00000000
  -V(xc)+E(xc)   XCENC  =       159.12143931
  PAW double counting   =      4725.20111610    -4704.31087218
  entropy T*S    EENTRO =         0.01244158
  eigenvalues    EBANDS =      -822.73695412
  atomic energy  EATOM  =      3603.78094172
  Solvation  Ediel_sol  =         0.00000000
  ---------------------------------------------------
  free energy    TOTEN  =       -21.56221102 eV

  energy without entropy =      -21.57465261  energy(sigma->0) =      -21.56532142


--------------------------------------------------------------------------------------------------------




----------------------------------------- Iteration    1(  15)  ---------------------------------------


    POTLOK:  cpu time    0.0648: real time    0.0648
    SETDIJ:  cpu time    0.0037: real time    0.0037
    EDDIAG:  cpu time    0.0246: real time    0.0246
  RMM-DIIS:  cpu time    0.0873: real time    0.0873
    ORTHCH:  cpu time    0.0054: real time    0.0054
       DOS:  cpu time    0.0002: real time    0.0002
    CHARGE:  cpu time    0.0941: real time    0.0941
    MIXING:  cpu time    0.0030: real time    0.0030
    --------------------------------------------
      LOOP:  cpu time    0.2844: real time    0.3117

 eigenvalue-minimisations  :   161
 total energy-change (2. order) :-0.2651404E-01  (-0.4158440E-03)
 number of electron      47.9999969 magnetization       0.1038634
 augmentation part       -3.5850291 magnetization       0.0006648

 Broyden mixing:
  rms(total) = 0.38161E-02    rms(broyden)= 0.38158E-02
  rms(prec ) = 0.58896E-02
  weight for this iteration     100.00

 eigenvalues of (default mixing * dielectric matrix)
  average eigenvalue GAMMA=   1.3738
  3.7315  2.4503  1.6073  1.6073  0.9085  0.9085  0.7402  0.6460  0.6084  0.5299

 Free energy of the ion-electron system (eV)
  ---------------------------------------------------
  alpha Z        PSCENC =         3.77621084
  Ewald energy   TEWEN  =      2185.82160436
  -Hartree energ DENC   =     -5172.09001697
  -exchange      EXHF   =         0.00000000
  -V(xc)+E(xc)   XCENC  =       159.09140801
  PAW double counting   =      4724.27929967    -4703.37086521
  entropy T*S    EENTRO =         0.01247782
  eigenvalues    EBANDS =      -822.88978530
  atomic energy  EATOM  =      3603.78094172
  Solvation  Ediel_sol  =         0.00000000
  ---------------------------------------------------
  free energy    TOTEN  =       -21.58872506 eV

  energy without entropy =      -21.60120288  energy(sigma->0) =      -21.59184451


--------------------------------------------------------------------------------------------------------




----------------------------------------- Iteration    1(  16)  ---------------------------------------


    POTLOK:  cpu time    0.0650: real time    0.0650
    SETDIJ:  cpu time    0.0037: real time    0.0037
    EDDIAG:  cpu time    0.0247: real time    0.0247
  RMM-DIIS:  cpu time    0.0826: real time    0.0826
    ORTHCH:  cpu time    0.0055: real time    0.0055
       DOS:  cpu time    0.0002: real time    0.0002
    CHARGE:  cpu time    0.0856: real time    0.0856
    MIXING:  cpu time    0.0030: real time    0.0030
    --------------------------------------------
      LOOP:  cpu time    0.2716: real time    0.2877

 eigenvalue-minimisations  :   152
 total energy-change (2. order) :-0.7142292E-02  (-0.1600116E-03)
 number of electron      47.9999969 magnetization       0.0928138
 augmentation part       -3.5855151 magnetization      -0.0104187

 Broyden mixing:
  rms(total) = 0.22873E-02    rms(broyden)= 0.22870E-02
  rms(prec ) = 0.40913E-02
  weight for this iteration     100.00

 eigenvalues of (default mixing * dielectric matrix)
  average eigenvalue GAMMA=   1.3748
  3.9166  2.1076  1.9184  1.9184  1.0300  1.0300  0.7289  0.7289  0.6289  0.5864
  0.5283

 Free energy of the ion-electron system (eV)
  ---------------------------------------------------
  alpha Z        PSCENC =         3.77621084
  Ewald energy   TEWEN  =      2185.82160436
  -Hartree energ DENC   =     -5171.94488089
  -exchange      EXHF   =         0.00000000
  -V(xc)+E(xc)   XCENC  =       159.08006247
  PAW double counting   =      4724.18451339    -4703.26599063
  entropy T*S    EENTRO =         0.01245581
  eigenvalues    EBANDS =      -823.04078443
  atomic energy  EATOM  =      3603.78094172
  Solvation  Ediel_sol  =         0.00000000
  ---------------------------------------------------
  free energy    TOTEN  =       -21.59586735 eV

  energy without entropy =      -21.60832316  energy(sigma->0) =      -21.59898130


--------------------------------------------------------------------------------------------------------




----------------------------------------- Iteration    1(  17)  ---------------------------------------


    POTLOK:  cpu time    0.0649: real time    0.0649
    SETDIJ:  cpu time    0.0036: real time    0.0036
    EDDIAG:  cpu time    0.0245: real time    0.0245
  RMM-DIIS:  cpu time    0.0792: real time    0.0792
    ORTHCH:  cpu time    0.0055: real time    0.0055
       DOS:  cpu time    0.0002: real time    0.0002
    CHARGE:  cpu time    0.0897: real time    0.0897
    MIXING:  cpu time    0.0041: real time    0.0041
    --------------------------------------------
      LOOP:  cpu time    0.2729: real time    0.2909

 eigenvalue-minimisations  :   143
 total energy-change (2. order) :-0.1396874E-02  (-0.4060610E-04)
 number of electron      47.9999969 magnetization       0.0903390
 augmentation part       -3.5859021 magnetization      -0.0138525

 Broyden mixing:
  rms(total) = 0.16530E-02    rms(broyden)= 0.16529E-02
  rms(prec ) = 0.29921E-02
  weight for this iteration     100.00

 eigenvalues of (default mixing * dielectric matrix)
  average eigenvalue GAMMA=   1.3675
  3.9988  2.2911  2.2911  1.6359  1.0428  1.0428  0.9978  0.7088  0.6577  0.6577
  0.5652  0.5198

 Free energy of the ion-electron system (eV)
  ---------------------------------------------------
  alpha Z        PSCENC =         3.77621084
  Ewald energy   TEWEN  =      2185.82160436
  -Hartree energ DENC   =     -5171.85486026
  -exchange      EXHF   =         0.00000000
  -V(xc)+E(xc)   XCENC  =       159.07588910
  PAW double counting   =      4725.44763601    -4704.52850962
  entropy T*S    EENTRO =         0.01249126
  eigenvalues    EBANDS =      -823.12866764
  atomic energy  EATOM  =      3603.78094172
  Solvation  Ediel_sol  =         0.00000000
  ---------------------------------------------------
  free energy    TOTEN  =       -21.59726423 eV

  energy without entropy =      -21.60975549  energy(sigma->0) =      -21.60038704


--------------------------------------------------------------------------------------------------------




----------------------------------------- Iteration    1(  18)  ---------------------------------------


    POTLOK:  cpu time    0.0649: real time    0.0649
    SETDIJ:  cpu time    0.0037: real time    0.0037
    EDDIAG:  cpu time    0.0247: real time    0.0247
  RMM-DIIS:  cpu time    0.0734: real time    0.0734
    ORTHCH:  cpu time    0.0055: real time    0.0055
       DOS:  cpu time    0.0002: real time    0.0002
    CHARGE:  cpu time    0.0883: real time    0.0883
    MIXING:  cpu time    0.0034: real time    0.0034
    --------------------------------------------
      LOOP:  cpu time    0.2653: real time    0.2794

 eigenvalue-minimisations  :   136
 total energy-change (2. order) :-0.6042520E-03  (-0.1525808E-04)
 number of electron      47.9999969 magnetization       0.0886894
 augmentation part       -3.5861321 magnetization      -0.0153063

 Broyden mixing:
  rms(total) = 0.10545E-02    rms(broyden)= 0.10545E-02
  rms(prec ) = 0.21124E-02
  weight for this iteration     100.00

 eigenvalues of (default mixing * dielectric matrix)
  average eigenvalue GAMMA=   1.3930
  4.1982  2.4736  2.4736  1.5237  1.5237  1.0192  1.0192  0.8312  0.6715  0.6425
  0.6425  0.5279  0.5623

 Free energy of the ion-electron system (eV)
  ---------------------------------------------------
  alpha Z        PSCENC =         3.77621084
  Ewald energy   TEWEN  =      2185.82160436
  -Hartree energ DENC   =     -5171.75938050
  -exchange      EXHF   =         0.00000000
  -V(xc)+E(xc)   XCENC  =       159.07244599
  PAW double counting   =      4725.95858653    -4705.03904850
  entropy T*S    EENTRO =         0.01247763
  eigenvalues    EBANDS =      -823.22170656
  atomic energy  EATOM  =      3603.78094172
  Solvation  Ediel_sol  =         0.00000000
  ---------------------------------------------------
  free energy    TOTEN  =       -21.59786848 eV

  energy without entropy =      -21.61034611  energy(sigma->0) =      -21.60098789


--------------------------------------------------------------------------------------------------------




----------------------------------------- Iteration    1(  19)  ---------------------------------------


    POTLOK:  cpu time    0.0649: real time    0.0649
    SETDIJ:  cpu time    0.0037: real time    0.0037
    EDDIAG:  cpu time    0.0246: real time    0.0246
  RMM-DIIS:  cpu time    0.0737: real time    0.0738
    ORTHCH:  cpu time    0.0054: real time    0.0054
       DOS:  cpu time    0.0002: real time    0.0002
    CHARGE:  cpu time    0.0886: real time    0.0886
    MIXING:  cpu time    0.0035: real time    0.0035
    --------------------------------------------
      LOOP:  cpu time    0.2659: real time    0.2882

 eigenvalue-minimisations  :   129
 total energy-change (2. order) :-0.2465381E-03  (-0.1487100E-04)
 number of electron      47.9999969 magnetization       0.0910064
 augmentation part       -3.5863034 magnetization      -0.0128863

 Broyden mixing:
  rms(total) = 0.77748E-03    rms(broyden)= 0.77742E-03
  rms(prec ) = 0.12884E-02
  weight for this iteration     100.00

 eigenvalues of (default mixing * dielectric matrix)
  average eigenvalue GAMMA=   1.4414
  4.5451  2.5802  2.5802  1.6606  1.6606  1.3328  1.0193  1.0193  0.7320  0.6539
  0.6539  0.6457  0.5284  0.5674

 Free energy of the ion-electron system (eV)
  ---------------------------------------------------
  alpha Z        PSCENC =         3.77621084
  Ewald energy   TEWEN  =      2185.82160436
  -Hartree energ DENC   =     -5171.63542783
  -exchange      EXHF   =         0.00000000
  -V(xc)+E(xc)   XCENC  =       159.06822895
  PAW double counting   =      4726.22590190    -4705.30211682
  entropy T*S    EENTRO =         0.01246802
  eigenvalues    EBANDS =      -823.34592617
  atomic energy  EATOM  =      3603.78094172
  Solvation  Ediel_sol  =         0.00000000
  ---------------------------------------------------
  free energy    TOTEN  =       -21.59811502 eV

  energy without entropy =      -21.61058304  energy(sigma->0) =      -21.60123202


--------------------------------------------------------------------------------------------------------




----------------------------------------- Iteration    1(  20)  ---------------------------------------


    POTLOK:  cpu time    0.0649: real time    0.0649
    SETDIJ:  cpu time    0.0036: real time    0.0036
    EDDIAG:  cpu time    0.0247: real time    0.0247
  RMM-DIIS:  cpu time    0.0731: real time    0.0731
    ORTHCH:  cpu time    0.0054: real time    0.0054
       DOS:  cpu time    0.0002: real time    0.0002
    CHARGE:  cpu time    0.0884: real time    0.0884
    MIXING:  cpu time    0.0037: real time    0.0037
    --------------------------------------------
      LOOP:  cpu time    0.2665: real time    0.2999

 eigenvalue-minimisations  :   129
 total energy-change (2. order) :-0.7404095E-03  (-0.9860290E-05)
 number of electron      47.9999969 magnetization       0.0951536
 augmentation part       -3.5864586 magnetization      -0.0089106

 Broyden mixing:
  rms(total) = 0.57697E-03    rms(broyden)= 0.57694E-03
  rms(prec ) = 0.83982E-03
  weight for this iteration     100.00

 eigenvalues of (default mixing * dielectric matrix)
  average eigenvalue GAMMA=   1.4499
  4.8104  2.7697  2.4368  1.9330  1.9330  1.2312  1.1005  0.9214  0.9214  0.7356
  0.6381  0.6381  0.5298  0.5747  0.5747

 Free energy of the ion-electron system (eV)
  ---------------------------------------------------
  alpha Z        PSCENC =         3.77621084
  Ewald energy   TEWEN  =      2185.82160436
  -Hartree energ DENC   =     -5171.59000851
  -exchange      EXHF   =         0.00000000
  -V(xc)+E(xc)   XCENC  =       159.06632775
  PAW double counting   =      4726.17784557    -4705.25085774
  entropy T*S    EENTRO =         0.01247616
  eigenvalues    EBANDS =      -823.39339558
  atomic energy  EATOM  =      3603.78094172
  Solvation  Ediel_sol  =         0.00000000
  ---------------------------------------------------
  free energy    TOTEN  =       -21.59885543 eV

  energy without entropy =      -21.61133158  energy(sigma->0) =      -21.60197447


--------------------------------------------------------------------------------------------------------




----------------------------------------- Iteration    1(  21)  ---------------------------------------


    POTLOK:  cpu time    0.0650: real time    0.0650
    SETDIJ:  cpu time    0.0036: real time    0.0036
    EDDIAG:  cpu time    0.0244: real time    0.0244
  RMM-DIIS:  cpu time    0.0698: real time    0.0698
    ORTHCH:  cpu time    0.0053: real time    0.0053
       DOS:  cpu time    0.0002: real time    0.0002
    CHARGE:  cpu time    0.0888: real time    0.0888
    MIXING:  cpu time    0.0037: real time    0.0037
    --------------------------------------------
      LOOP:  cpu time    0.2622: real time    0.2957

 eigenvalue-minimisations  :   120
 total energy-change (2. order) :-0.1166195E-02  (-0.5791371E-05)
 number of electron      47.9999969 magnetization       0.0972904
 augmentation part       -3.5865294 magnetization      -0.0066286

 Broyden mixing:
  rms(total) = 0.38400E-03    rms(broyden)= 0.38399E-03
  rms(prec ) = 0.50790E-03
  weight for this iteration     100.00

 eigenvalues of (default mixing * dielectric matrix)
  average eigenvalue GAMMA=   1.5862
  6.0020  3.3241  2.7968  2.2401  1.9808  1.3301  1.3301  0.9900  0.9900  0.7233
  0.6990  0.6990  0.6117  0.5277  0.5672  0.5672

 Free energy of the ion-electron system (eV)
  ---------------------------------------------------
  alpha Z        PSCENC =         3.77621084
  Ewald energy   TEWEN  =      2185.82160436
  -Hartree energ DENC   =     -5171.59027404
  -exchange      EXHF   =         0.00000000
  -V(xc)+E(xc)   XCENC  =       159.06574473
  PAW double counting   =      4726.28816345    -4705.35819480
  entropy T*S    EENTRO =         0.01246752
  eigenvalues    EBANDS =      -823.39668541
  atomic energy  EATOM  =      3603.78094172
  Solvation  Ediel_sol  =         0.00000000
  ---------------------------------------------------
  free energy    TOTEN  =       -21.60002162 eV

  energy without entropy =      -21.61248914  energy(sigma->0) =      -21.60313850


--------------------------------------------------------------------------------------------------------




----------------------------------------- Iteration    1(  22)  ---------------------------------------


    POTLOK:  cpu time    0.0649: real time    0.0649
    SETDIJ:  cpu time    0.0036: real time    0.0036
    EDDIAG:  cpu time    0.0245: real time    0.0245
  RMM-DIIS:  cpu time    0.0713: real time    0.0713
    ORTHCH:  cpu time    0.0054: real time    0.0054
       DOS:  cpu time    0.0002: real time    0.0002
    CHARGE:  cpu time    0.0888: real time    0.0888
    MIXING:  cpu time    0.0039: real time    0.0039
    --------------------------------------------
      LOOP:  cpu time    0.2638: real time    0.2752

 eigenvalue-minimisations  :   121
 total energy-change (2. order) :-0.3716424E-03  (-0.2503835E-05)
 number of electron      47.9999969 magnetization       0.0984652
 augmentation part       -3.5865679 magnetization      -0.0054630

 Broyden mixing:
  rms(total) = 0.19131E-03    rms(broyden)= 0.19128E-03
  rms(prec ) = 0.27277E-03
  weight for this iteration     100.00

 eigenvalues of (default mixing * dielectric matrix)
  average eigenvalue GAMMA=   1.6238
  6.8679  3.7301  2.7995  2.1419  2.1419  1.3770  1.3770  0.9841  0.9841  0.8456
  0.7185  0.6808  0.6808  0.6188  0.5772  0.5363  0.5430

 Free energy of the ion-electron system (eV)
  ---------------------------------------------------
  alpha Z        PSCENC =         3.77621084
  Ewald energy   TEWEN  =      2185.82160436
  -Hartree energ DENC   =     -5171.59215911
  -exchange      EXHF   =         0.00000000
  -V(xc)+E(xc)   XCENC  =       159.06573059
  PAW double counting   =      4726.30572486    -4705.37417554
  entropy T*S    EENTRO =         0.01246818
  eigenvalues    EBANDS =      -823.39673916
  atomic energy  EATOM  =      3603.78094172
  Solvation  Ediel_sol  =         0.00000000
  ---------------------------------------------------
  free energy    TOTEN  =       -21.60039326 eV

  energy without entropy =      -21.61286144  energy(sigma->0) =      -21.60351031


--------------------------------------------------------------------------------------------------------




----------------------------------------- Iteration    1(  23)  ---------------------------------------


    POTLOK:  cpu time    0.0648: real time    0.0648
    SETDIJ:  cpu time    0.0036: real time    0.0036
    EDDIAG:  cpu time    0.0244: real time    0.0244
  RMM-DIIS:  cpu time    0.0603: real time    0.0603
    ORTHCH:  cpu time    0.0057: real time    0.0057
       DOS:  cpu time    0.0002: real time    0.0002
    CHARGE:  cpu time    0.0887: real time    0.0887
    MIXING:  cpu time    0.0041: real time    0.0041
    --------------------------------------------
      LOOP:  cpu time    0.2531: real time    0.2597

 eigenvalue-minimisations  :    96
 total energy-change (2. order) :-0.6178051E-04  (-0.4238516E-06)
 number of electron      47.9999969 magnetization       0.0987153
 augmentation part       -3.5865818 magnetization      -0.0052433

 Broyden mixing:
  rms(total) = 0.17095E-03    rms(broyden)= 0.17094E-03
  rms(prec ) = 0.22090E-03
  weight for this iteration     100.00

 eigenvalues of (default mixing * dielectric matrix)
  average eigenvalue GAMMA=   1.6391
  7.5265  3.8478  2.7976  2.1983  2.1983  1.4518  1.4518  1.0843  1.0843  0.9256
  0.7340  0.6737  0.6737  0.6607  0.5273  0.5586  0.5586  0.5506

 Free energy of the ion-electron system (eV)
  ---------------------------------------------------
  alpha Z        PSCENC =         3.77621084
  Ewald energy   TEWEN  =      2185.82160436
  -Hartree energ DENC   =     -5171.59821837
  -exchange      EXHF   =         0.00000000
  -V(xc)+E(xc)   XCENC  =       159.06593433
  PAW double counting   =      4726.34166417    -4705.41054919
  entropy T*S    EENTRO =         0.01246939
  eigenvalues    EBANDS =      -823.39051231
  atomic energy  EATOM  =      3603.78094172
  Solvation  Ediel_sol  =         0.00000000
  ---------------------------------------------------
  free energy    TOTEN  =       -21.60045504 eV

  energy without entropy =      -21.61292443  energy(sigma->0) =      -21.60357239


--------------------------------------------------------------------------------------------------------




----------------------------------------- Iteration    1(  24)  ---------------------------------------


    POTLOK:  cpu time    0.0650: real time    0.0650
    SETDIJ:  cpu time    0.0036: real time    0.0036
    EDDIAG:  cpu time    0.0245: real time    0.0245
  RMM-DIIS:  cpu time    0.0444: real time    0.0444
    ORTHCH:  cpu time    0.0054: real time    0.0055
       DOS:  cpu time    0.0002: real time    0.0002
    CHARGE:  cpu time    0.0886: real time    0.0886
    MIXING:  cpu time    0.0043: real time    0.0043
    --------------------------------------------
      LOOP:  cpu time    0.2373: real time    0.2922

 eigenvalue-minimisations  :    80
 total energy-change (2. order) :-0.2502769E-04  (-0.8224084E-07)
 number of electron      47.9999969 magnetization       0.0991025
 augmentation part       -3.5865905 magnetization      -0.0048626

 Broyden mixing:
  rms(total) = 0.11756E-03    rms(broyden)= 0.11756E-03
  rms(prec ) = 0.15565E-03
  weight for this iteration     100.00

 eigenvalues of (default mixing * dielectric matrix)
  average eigenvalue GAMMA=   1.6413
  7.7559  3.9490  2.9739  2.2810  2.2810  1.5563  1.3604  1.3604  1.0300  1.0300
  0.8113  0.7607  0.6238  0.6238  0.6360  0.5720  0.5237  0.5281  0.5281

 Free energy of the ion-electron system (eV)
  ---------------------------------------------------
  alpha Z        PSCENC =         3.77621084
  Ewald energy   TEWEN  =      2185.82160436
  -Hartree energ DENC   =     -5171.59801054
  -exchange      EXHF   =         0.00000000
  -V(xc)+E(xc)   XCENC  =       159.06585017
  PAW double counting   =      4726.31486152    -4705.38353494
  entropy T*S    EENTRO =         0.01246938
  eigenvalues    EBANDS =      -823.39087260
  atomic energy  EATOM  =      3603.78094172
  Solvation  Ediel_sol  =         0.00000000
  ---------------------------------------------------
  free energy    TOTEN  =       -21.60048007 eV

  energy without entropy =      -21.61294946  energy(sigma->0) =      -21.60359742


--------------------------------------------------------------------------------------------------------




----------------------------------------- Iteration    1(  25)  ---------------------------------------


    POTLOK:  cpu time    0.0645: real time    0.0645
    SETDIJ:  cpu time    0.0036: real time    0.0036
    EDDIAG:  cpu time    0.0242: real time    0.0242
  RMM-DIIS:  cpu time    0.0446: real time    0.0446
    ORTHCH:  cpu time    0.0056: real time    0.0056
       DOS:  cpu time    0.0002: real time    0.0002
    CHARGE:  cpu time    0.0885: real time    0.0885
    MIXING:  cpu time    0.0045: real time    0.0045
    --------------------------------------------
      LOOP:  cpu time    0.2371: real time    0.2970

 eigenvalue-minimisations  :    77
 total energy-change (2. order) :-0.1211468E-04  (-0.9421731E-07)
 number of electron      47.9999969 magnetization       0.0990950
 augmentation part       -3.5865934 magnetization      -0.0048673

 Broyden mixing:
  rms(total) = 0.10062E-03    rms(broyden)= 0.10062E-03
  rms(prec ) = 0.12007E-03
  weight for this iteration     100.00

 eigenvalues of (default mixing * dielectric matrix)
  average eigenvalue GAMMA=   1.6423
  8.0185  3.9844  3.1736  2.2807  2.2807  2.0304  1.3633  1.3633  1.0110  1.0110
  0.9070  0.7562  0.6667  0.6667  0.6357  0.6357  0.5741  0.5184  0.5184  0.4505

 Free energy of the ion-electron system (eV)
  ---------------------------------------------------
  alpha Z        PSCENC =         3.77621084
  Ewald energy   TEWEN  =      2185.82160436
  -Hartree energ DENC   =     -5171.60011980
  -exchange      EXHF   =         0.00000000
  -V(xc)+E(xc)   XCENC  =       159.06587249
  PAW double counting   =      4726.31762593    -4705.38607617
  entropy T*S    EENTRO =         0.01246918
  eigenvalues    EBANDS =      -823.38902074
  atomic energy  EATOM  =      3603.78094172
  Solvation  Ediel_sol  =         0.00000000
  ---------------------------------------------------
  free energy    TOTEN  =       -21.60049219 eV

  energy without entropy =      -21.61296137  energy(sigma->0) =      -21.60360948


--------------------------------------------------------------------------------------------------------




----------------------------------------- Iteration    1(  26)  ---------------------------------------


    POTLOK:  cpu time    0.0648: real time    0.0648
    SETDIJ:  cpu time    0.0036: real time    0.0036
    EDDIAG:  cpu time    0.0245: real time    0.0245
  RMM-DIIS:  cpu time    0.0427: real time    0.0427
    ORTHCH:  cpu time    0.0056: real time    0.0056
       DOS:  cpu time    0.0002: real time    0.0002
    CHARGE:  cpu time    0.1064: real time    0.1064
    MIXING:  cpu time    0.0050: real time    0.0050
    --------------------------------------------
      LOOP:  cpu time    0.2539: real time    0.2997

 eigenvalue-minimisations  :    70
 total energy-change (2. order) :-0.1109121E-04  (-0.3944175E-07)
 number of electron      47.9999969 magnetization       0.0991182
 augmentation part       -3.5865960 magnetization      -0.0048415

 Broyden mixing:
  rms(total) = 0.41123E-04    rms(broyden)= 0.41119E-04
  rms(prec ) = 0.64366E-04
  weight for this iteration     100.00

 eigenvalues of (default mixing * dielectric matrix)
  average eigenvalue GAMMA=   1.6385
  8.1522  4.0985  3.3546  2.4040  2.1650  2.1650  1.4088  1.4088  1.0718  1.0102
  1.0102  0.8099  0.6902  0.6902  0.6485  0.6485  0.6378  0.5640  0.5224  0.5224
  0.4248

 Free energy of the ion-electron system (eV)
  ---------------------------------------------------
  alpha Z        PSCENC =         3.77621084
  Ewald energy   TEWEN  =      2185.82160436
  -Hartree energ DENC   =     -5171.59953977
  -exchange      EXHF   =         0.00000000
  -V(xc)+E(xc)   XCENC  =       159.06583743
  PAW double counting   =      4726.29986910    -4705.36819659
  entropy T*S    EENTRO =         0.01246898
  eigenvalues    EBANDS =      -823.38969935
  atomic energy  EATOM  =      3603.78094172
  Solvation  Ediel_sol  =         0.00000000
  ---------------------------------------------------
  free energy    TOTEN  =       -21.60050328 eV

  energy without entropy =      -21.61297226  energy(sigma->0) =      -21.60362052


--------------------------------------------------------------------------------------------------------




----------------------------------------- Iteration    1(  27)  ---------------------------------------


    POTLOK:  cpu time    0.0647: real time    0.0647
    SETDIJ:  cpu time    0.0036: real time    0.0036
    EDDIAG:  cpu time    0.0244: real time    0.0244
  RMM-DIIS:  cpu time    0.0425: real time    0.0425
    ORTHCH:  cpu time    0.0055: real time    0.0055
       DOS:  cpu time    0.0002: real time    0.0002
    CHARGE:  cpu time    0.0884: real time    0.0884
    MIXING:  cpu time    0.0048: real time    0.0048
    --------------------------------------------
      LOOP:  cpu time    0.2353: real time    0.2536

 eigenvalue-minimisations  :    67
 total energy-change (2. order) :-0.6437056E-05  (-0.3301903E-07)
 number of electron      47.9999969 magnetization       0.0989515
 augmentation part       -3.5865976 magnetization      -0.0050148

 Broyden mixing:
  rms(total) = 0.59091E-04    rms(broyden)= 0.59088E-04
  rms(prec ) = 0.66872E-04
  weight for this iteration     100.00

 eigenvalues of (default mixing * dielectric matrix)
  average eigenvalue GAMMA=   1.6601
  8.3115  4.0958  3.6004  2.6654  2.2594  2.2594  1.5897  1.5897  1.1885  1.0081
  1.0081  0.9590  0.7664  0.7224  0.6542  0.6542  0.6219  0.5744  0.5310  0.5384
  0.5384  0.3862

 Free energy of the ion-electron system (eV)
  ---------------------------------------------------
  alpha Z        PSCENC =         3.77621084
  Ewald energy   TEWEN  =      2185.82160436
  -Hartree energ DENC   =     -5171.60020543
  -exchange      EXHF   =         0.00000000
  -V(xc)+E(xc)   XCENC  =       159.06587904
  PAW double counting   =      4726.31222011    -4705.38049637
  entropy T*S    EENTRO =         0.01246916
  eigenvalues    EBANDS =      -823.38913316
[...]

 eigenvalues of (default mixing * dielectric matrix)
  average eigenvalue GAMMA=   0.9504
  0.9504  0.9504

 Free energy of the ion-electron system (eV)
  ---------------------------------------------------
  alpha Z        PSCENC =         3.77621084
  Ewald energy   TEWEN  =      1774.95588814
  -Hartree energ DENC   =     -4758.00556440
  -exchange      EXHF   =         0.00000000
  -V(xc)+E(xc)   XCENC  =       156.14348113
  PAW double counting   =      3791.08590031    -3770.90531146
  entropy T*S    EENTRO =         0.02187517
  eigenvalues    EBANDS =      -827.82977242
  atomic energy  EATOM  =      3603.78094172
  Solvation  Ediel_sol  =         0.00000000
  ---------------------------------------------------
  free energy    TOTEN  =       -26.97635095 eV

  energy without entropy =      -26.99822612  energy(sigma->0) =      -26.98181975


--------------------------------------------------------------------------------------------------------




----------------------------------------- Iteration   90(   4)  ---------------------------------------


    POTLOK:  cpu time    0.0647: real time    0.0647
    SETDIJ:  cpu time    0.0036: real time    0.0036
    EDDIAG:  cpu time    0.0248: real time    0.0248
  RMM-DIIS:  cpu time    0.0515: real time    0.0515
    ORTHCH:  cpu time    0.0056: real time    0.0056
       DOS:  cpu time    0.0002: real time    0.0002
    --------------------------------------------
      LOOP:  cpu time    0.1517: real time    0.1580

 eigenvalue-minimisations  :    84
 total energy-change (2. order) : 0.9263254E-06  (-0.1554465E-06)
 number of electron      47.9999988 magnetization      -0.1449527
 augmentation part       -3.5193943 magnetization       0.0078059

 Free energy of the ion-electron system (eV)
  ---------------------------------------------------
  alpha Z        PSCENC =         3.77621084
  Ewald energy   TEWEN  =      1774.95588814
  -Hartree energ DENC   =     -4758.00507176
  -exchange      EXHF   =         0.00000000
  -V(xc)+E(xc)   XCENC  =       156.14348083
  PAW double counting   =      3791.05513497    -3770.87459276
  entropy T*S    EENTRO =         0.02187023
  eigenvalues    EBANDS =      -827.83021225
  atomic energy  EATOM  =      3603.78094172
  Solvation  Ediel_sol  =         0.00000000
  ---------------------------------------------------
  free energy    TOTEN  =       -26.97635003 eV

  energy without entropy =      -26.99822026  energy(sigma->0) =      -26.98181759


--------------------------------------------------------------------------------------------------------




 average (electrostatic) potential at core
  the test charge radii are     1.0703  0.9406
  (the norm of the test charge is              1.0000)
       1 -96.3394       2-100.7849       3-100.7849       4-101.3809       5-101.2579
       6-101.2863
 
 
 
 E-fermi :  -7.2607     XC(G=0):  -0.6906     alpha+bet : -0.3817


 spin component 1

 k-point     1 :       0.0000    0.0000    0.0000
  band No.  band energies     occupation 
      1     -62.3892      1.00000
      2     -38.4635      1.00000
      3     -38.4516      1.00000
      4     -38.3746      1.00000
      5     -20.9177      1.00000
      6     -20.6365      1.00000
      7     -20.5400      1.00000
      8     -20.2680      1.00000
      9     -19.9944      1.00000
     10     -10.3015      1.00000
     11     -10.1551      1.00000
     12     -10.1120      1.00000
     13     -10.0323      1.00000
     14      -9.7750      1.00000
     15      -9.7534      1.00000
     16      -8.9744      1.00000
     17      -8.9518      1.00000
     18      -8.8971      1.00000
     19      -8.3363      1.00000
     20      -7.8439      0.99956
     21      -7.8315      0.99943
     22      -7.8196      0.99927
     23      -7.5038      1.03631
     24      -7.3460      0.89315
     25      -4.6040      0.00000
     26      -4.5953      0.00000
     27      -3.8075      0.00000
     28      -3.6783      0.00000
     29      -1.7292      0.00000
     30      -0.4260      0.00000
     31       0.4574      0.00000
     32       0.4648      0.00000

 spin component 2

 k-point     1 :       0.0000    0.0000    0.0000
  band No.  band energies     occupation 
      1     -62.3838      1.00000
      2     -38.4593      1.00000
      3     -38.4442      1.00000
      4     -38.3675      1.00000
      5     -20.9372      1.00000
      6     -20.6489      1.00000
      7     -20.5764      1.00000
      8     -20.3044      1.00000
      9     -20.0333      1.00000
     10     -10.3077      1.00000
     11     -10.1664      1.00000
     12     -10.1147      1.00000
     13     -10.0403      1.00000
     14      -9.8239      1.00000
     15      -9.7619      1.00000
     16      -9.0003      1.00000
     17      -8.9668      1.00000
     18      -8.9078      1.00000
     19      -8.3462      1.00000
     20      -7.9000      0.99989
     21      -7.8557      0.99967
     22      -7.8489      0.99961
     23      -7.5234      1.02693
     24      -7.4289      1.04618
     25      -4.6178      0.00000
     26      -4.5945      0.00000
     27      -3.8078      0.00000
     28      -3.6775      0.00000
     29      -1.7350      0.00000
     30      -0.4305      0.00000
     31       0.4542      0.00000
     32       0.4633      0.00000


--------------------------------------------------------------------------------------------------------


 soft charge-density along one line, spin component           1
         0         1         2         3         4         5         6         7         8         9
 total charge-density along one line
 
 soft charge-density along one line, spin component           2
         0         1         2         3         4         5         6         7         8         9
 total charge-density along one line
 
 pseudopotential strength for first ion, spin component:           1
  6.717 -26.912  -0.000  -0.000   0.001   0.001   0.001  -0.002
-26.912  15.224  -0.001  -0.001   0.002   0.000   0.000  -0.000
 -0.000  -0.001 -14.048  -0.007   0.000  11.365   0.007  -0.000
 -0.000  -0.001  -0.007 -14.048   0.000   0.007  11.365  -0.000
  0.001   0.002   0.000   0.000 -14.058  -0.000  -0.000  11.375
  0.001   0.000  11.365   0.007  -0.000   4.472  -0.003   0.000
  0.001   0.000   0.007  11.365  -0.000  -0.003   4.472   0.000
 -0.002  -0.000  -0.000  -0.000  11.375   0.000   0.000   4.468
  0.000   0.000   0.005   0.003   0.002  -0.002  -0.001  -0.000
 -0.005  -0.002  -0.001  -0.001   0.003   0.001   0.001  -0.001
  0.002   0.001  -0.001  -0.002   0.003  -0.000   0.001   0.000
  0.000   0.000   0.003   0.005   0.002  -0.001  -0.002  -0.000
 -0.004  -0.001   0.002   0.002  -0.005  -0.001  -0.000  -0.000
  0.000   0.000   0.006   0.004   0.003  -0.002  -0.001  -0.000
 -0.007  -0.002  -0.002  -0.002   0.004   0.001   0.001  -0.001
  0.003   0.001  -0.001  -0.002   0.004  -0.000   0.001  -0.000
  0.000   0.000   0.004   0.006   0.003  -0.001  -0.002  -0.000
 -0.005  -0.002   0.003   0.002  -0.007  -0.001  -0.000   0.000
 pseudopotential strength for first ion, spin component:           2
  6.716 -26.910  -0.000  -0.000   0.001   0.001   0.001  -0.002
-26.910  15.223  -0.001  -0.001   0.002   0.000   0.000  -0.000
 -0.000  -0.001 -14.047  -0.007   0.000  11.363   0.007  -0.000
 -0.000  -0.001  -0.007 -14.047   0.000   0.007  11.363  -0.000
  0.001   0.002   0.000   0.000 -14.057  -0.000  -0.000  11.374
  0.001   0.000  11.363   0.007  -0.000   4.473  -0.003   0.000
  0.001   0.000   0.007  11.363  -0.000  -0.003   4.473   0.000
 -0.002  -0.000  -0.000  -0.000  11.374   0.000   0.000   4.468
  0.000   0.000   0.005   0.003   0.002  -0.002  -0.001  -0.000
 -0.005  -0.002  -0.001  -0.001   0.003   0.001   0.001  -0.001
  0.002   0.001  -0.001  -0.002   0.003  -0.000   0.001   0.000
  0.000   0.000   0.003   0.005   0.002  -0.001  -0.002  -0.000
 -0.004  -0.001   0.002   0.002  -0.005  -0.001  -0.000  -0.000
  0.000   0.000   0.006   0.004   0.003  -0.002  -0.001  -0.000
 -0.007  -0.002  -0.002  -0.002   0.004   0.001   0.001  -0.001
  0.003   0.001  -0.001  -0.002   0.004  -0.000   0.001  -0.000
  0.000   0.000   0.004   0.006   0.003  -0.001  -0.002  -0.000
 -0.005  -0.002   0.003   0.002  -0.007  -0.001  -0.000   0.000
 total augmentation occupancy for first ion, spin component:           1
  1.994  -0.064  -0.000  -0.000   0.000  -0.000  -0.000   0.000   0.000   0.009  -0.003   0.000   0.006  -0.000  -0.006   0.002
 -0.064   1.332   0.000   0.000  -0.001  -0.002  -0.002   0.005   0.002  -0.009   0.006   0.002  -0.011  -0.001  -0.004  -0.000
 -0.000   0.000   1.997  -0.000  -0.000  -0.059   0.004  -0.000   0.020  -0.006  -0.003   0.013   0.010  -0.002   0.001  -0.001
 -0.000   0.000  -0.000   1.997  -0.000   0.004  -0.059  -0.000   0.013  -0.006  -0.007   0.020   0.007   0.001   0.001   0.001
  0.000  -0.001  -0.000  -0.000   1.997  -0.000  -0.000  -0.053   0.009   0.013   0.011   0.009  -0.018   0.003   0.001   0.004
 -0.000  -0.002  -0.059   0.004  -0.000   0.090  -0.011   0.000  -0.120   0.031   0.028  -0.102  -0.063   0.056  -0.015  -0.014
 -0.000  -0.002   0.004  -0.059  -0.000  -0.011   0.090   0.000  -0.102   0.031   0.040  -0.120  -0.056   0.049  -0.015  -0.019
  0.000   0.005  -0.000  -0.000  -0.053   0.000   0.000   0.077  -0.082  -0.103  -0.107  -0.082   0.185   0.039   0.049   0.052
  0.000   0.002   0.020   0.013   0.009  -0.120  -0.102  -0.082   1.938   0.033   0.026   0.626  -0.042  -0.764  -0.018  -0.015
  0.009  -0.009  -0.006  -0.006   0.013   0.031   0.031  -0.103   0.033   3.624  -0.260   0.033   0.450  -0.018  -1.664   0.143
 -0.003   0.006  -0.003  -0.007   0.011   0.028   0.040  -0.107   0.026  -0.260   1.718   0.024  -0.728  -0.015   0.143  -0.662
  0.000   0.002   0.013   0.020   0.009  -0.102  -0.120  -0.082   0.626   0.033   0.024   1.938  -0.043  -0.321  -0.018  -0.013
  0.006  -0.011   0.010   0.007  -0.018  -0.063  -0.056   0.185  -0.042   0.450  -0.728  -0.043   2.559   0.024  -0.247   0.378
 -0.000  -0.001  -0.002   0.001   0.003   0.056   0.049   0.039  -0.764  -0.018  -0.015  -0.321   0.024   0.320   0.010   0.008
 -0.006  -0.004   0.001   0.001   0.001  -0.015  -0.015   0.049  -0.018  -1.664   0.143  -0.018  -0.247   0.010   0.807  -0.079
  0.002  -0.000  -0.001   0.001   0.004  -0.014  -0.019   0.052  -0.015   0.143  -0.662  -0.013   0.378   0.008  -0.079   0.269
 -0.000  -0.001   0.001  -0.002   0.003   0.049   0.056   0.039  -0.321  -0.018  -0.013  -0.764   0.024   0.169   0.010   0.007
 -0.003   0.000  -0.000   0.001  -0.007   0.030   0.027  -0.090   0.024  -0.247   0.378   0.024  -1.098  -0.013   0.136  -0.201
 total augmentation occupancy for first ion, spin component:           2
  0.000   0.000   0.000   0.000  -0.000   0.000   0.000  -0.000  -0.000   0.000   0.000  -0.000  -0.000   0.000  -0.000  -0.000
  0.000   0.001   0.000   0.000  -0.000   0.000   0.000  -0.000  -0.000   0.000   0.000  -0.000  -0.001   0.000  -0.000  -0.000
  0.000   0.000   0.000   0.000  -0.000   0.000   0.000  -0.000  -0.000   0.000  -0.000  -0.000  -0.000   0.000  -0.000   0.000
  0.000   0.000   0.000   0.000  -0.000   0.000   0.000  -0.000  -0.000   0.000   0.000  -0.000  -0.000   0.000  -0.000  -0.000
 -0.000  -0.000  -0.000  -0.000   0.000  -0.000  -0.000   0.000   0.000  -0.000   0.000   0.000  -0.000  -0.000   0.000  -0.000
  0.000   0.000   0.000   0.000  -0.000   0.000  -0.000  -0.000  -0.000   0.000  -0.000   0.000  -0.000   0.000  -0.000   0.000
  0.000   0.000   0.000   0.000  -0.000  -0.000   0.000  -0.000   0.000   0.000   0.000  -0.000  -0.000  -0.000  -0.000  -0.000
 -0.000  -0.000  -0.000  -0.000   0.000  -0.000  -0.000   0.000   0.000  -0.000   0.000   0.000  -0.000   0.000   0.000   0.000
 -0.000  -0.000  -0.000  -0.000   0.000  -0.000   0.000   0.000   0.002  -0.000   0.000  -0.000   0.000  -0.000  -0.000  -0.000
  0.000   0.000   0.000   0.000  -0.000   0.000   0.000  -0.000  -0.000   0.002   0.000  -0.000  -0.000  -0.000  -0.000  -0.000
  0.000   0.000  -0.000   0.000   0.000  -0.000   0.000   0.000   0.000   0.000   0.005  -0.000   0.002  -0.000  -0.000   0.000
 -0.000  -0.000  -0.000  -0.000   0.000   0.000  -0.000   0.000  -0.000  -0.000  -0.000   0.002   0.000  -0.000  -0.000   0.000
 -0.000  -0.001  -0.000  -0.000  -0.000  -0.000  -0.000  -0.000   0.000  -0.000   0.002   0.000   0.003  -0.000   0.000   0.000
  0.000   0.000   0.000   0.000  -0.000   0.000  -0.000   0.000  -0.000  -0.000  -0.000  -0.000  -0.000  -0.000  -0.000  -0.000
 -0.000  -0.000  -0.000  -0.000   0.000  -0.000  -0.000   0.000  -0.000  -0.000  -0.000  -0.000   0.000  -0.000   0.000   0.000
 -0.000  -0.000   0.000  -0.000  -0.000   0.000  -0.000   0.000  -0.000  -0.000   0.000   0.000   0.000  -0.000   0.000  -0.001
  0.000   0.000   0.000   0.000  -0.000  -0.000   0.000   0.000  -0.000  -0.000   0.000  -0.000   0.000   0.000  -0.000   0.000
  0.000   0.000   0.000   0.000   0.000   0.000   0.000  -0.000   0.000   0.000   0.000   0.000   0.000  -0.000  -0.000  -0.000


------------------------ aborting loop because EDIFF is reached ----------------------------------------


    CHARGE:  cpu time    0.0809: real time    0.0809
    FORLOC:  cpu time    0.0019: real time    0.0019
    FORNL :  cpu time    0.0218: real time    0.0218
    STRESS:  cpu time    0.0637: real time    0.0637
    FORCOR:  cpu time    0.0639: real time    0.0639
    FORHAR:  cpu time    0.0087: real time    0.0087
    MIXING:  cpu time    0.0018: real time    0.0018
    OFIELD:  cpu time    0.0000: real time    0.0000

  FORCE on cell =-STRESS in cart. coord.  units (eV):
  Direction    XX          YY          ZZ          XY          YZ          ZX
  --------------------------------------------------------------------------------------
  Alpha Z     3.77621     3.77621     3.77621
  Ewald     372.66759   701.14340   701.14340    -0.68529  -208.46174    -0.68529
  Hartree  1414.45500  1671.77531  1671.77531    -0.56775  -159.71617    -0.56775
  E(xc)    -188.75567  -188.47008  -188.47008     0.00015    -0.19514     0.00015
  Local   -2750.90839 -3339.63445 -3339.63445     1.19275   372.84535     1.19275
  n-local   405.18287   406.20493   406.20493    -0.00483    -1.36332    -0.00485
  augment   -79.41967   -79.40416   -79.40416    -0.00230     0.22038    -0.00227
  Kinetic   822.85578   824.46196   824.46196     0.06445    -3.34163     0.06445
  Fock        0.00000     0.00000     0.00000     0.00000     0.00000     0.00000
  -------------------------------------------------------------------------------------
  Total      -0.14629    -0.14686    -0.14686    -0.00281    -0.01226    -0.00281
  in kB      -0.06945    -0.06972    -0.06972    -0.00133    -0.00582    -0.00133
  external pressure =       -0.07 kB  Pullay stress =        0.00 kB


 VOLUME and BASIS-vectors are now :
 -----------------------------------------------------------------------------
  energy-cutoff  :      450.00
  volume of cell :     3375.00
      direct lattice vectors                 reciprocal lattice vectors
    15.000000000  0.000000000  0.000000000     0.066666667  0.000000000  0.000000000
     0.000000000 15.000000000  0.000000000     0.000000000  0.066666667  0.000000000
     0.000000000  0.000000000 15.000000000     0.000000000  0.000000000  0.066666667

  length of vectors
    15.000000000 15.000000000 15.000000000     0.066666667  0.066666667  0.066666667


 FORCES acting on ions
    electron-ion (+dipol)            ewald-force                    non-local-force                 convergence-correction
 -----------------------------------------------------------------------------------------------
   0.205E+00 -.216E-02 -.216E-02   -.124E-01 -.849E-01 -.849E-01   -.202E+00 0.873E-01 0.873E-01   0.537E-02 -.208E-02 -.208E-02
   0.100E+02 0.280E+03 -.288E+03   -.101E+02 -.281E+03 0.288E+03   0.419E-01 0.346E+00 -.360E+00   0.324E-02 0.330E-03 0.161E-02
   0.100E+02 -.288E+03 0.280E+03   -.101E+02 0.288E+03 -.281E+03   0.419E-01 -.360E+00 0.346E+00   0.324E-02 0.161E-02 0.330E-03
   -.405E+03 0.463E+02 0.463E+02   0.406E+03 -.464E+02 -.464E+02   -.971E+00 0.128E+00 0.128E+00   -.482E-02 -.578E-02 -.578E-02
   0.140E+03 -.270E+03 -.270E+03   -.140E+03 0.271E+03 0.271E+03   0.382E+00 -.820E+00 -.820E+00   0.317E-02 0.234E-02 0.234E-02
   0.245E+03 0.231E+03 0.231E+03   -.245E+03 -.232E+03 -.232E+03   0.621E+00 0.658E+00 0.658E+00   -.196E-02 0.609E-03 0.609E-03
 -----------------------------------------------------------------------------------------------
   0.745E-01 -.153E-01 -.153E-01   -.284E-13 -.284E-13 0.853E-13   -.861E-01 0.399E-01 0.399E-01   0.823E-02 -.297E-02 -.297E-02
 
 
 POSITION                                       TOTAL-FORCE (eV/Angst)
 -----------------------------------------------------------------------------------
      7.88319      8.12039      8.12039        -0.003821     -0.005404     -0.005404
      7.81438      6.50042      9.79447        -0.003235     -0.000301      0.002734
      7.81438      9.79447      6.50042        -0.003235      0.002734     -0.000301
     10.12417      7.86470      7.86470         0.003658      0.005508      0.005508
      7.09673      9.64183      9.64183         0.000078     -0.001591     -0.001591
      6.51715      6.82818      6.82818         0.006556     -0.000948     -0.000948
 -----------------------------------------------------------------------------------
    total drift:                               -0.003386      0.021591      0.021592


--------------------------------------------------------------------------------------------------------



  FREE ENERGIE OF THE ION-ELECTRON SYSTEM (eV)
  ---------------------------------------------------
  free  energy   TOTEN  =       -26.97635003 eV

  energy  without entropy=      -26.99822026  energy(sigma->0) =      -26.98181759
 
 d Force = 0.1446129E-04[ 0.130E-04, 0.160E-04]  d Energy = 0.1262231E-04 0.184E-05
 d Force = 0.4980629E-01[ 0.499E-01, 0.497E-01]  d Ewald  = 0.4980630E-01-0.141E-07


--------------------------------------------------------------------------------------------------------


    POTLOK:  cpu time    0.0693: real time    0.0693


--------------------------------------------------------------------------------------------------------


 Conjugate gradient step on ions:
 trial-energy change:   -0.000013  1 .order   -0.000014   -0.000016   -0.000013
  (g-gl).g = 0.389E-05      g.g   = 0.339E-05  gl.gl    = 0.735E-05
 g(Force)  = 0.339E-05   g(Stress)= 0.000E+00 ortho     = 0.594E-07
 gamma     =   0.52948
 trial     =   4.66094
 opt step  =  18.64376  (harmonic =  24.96151) maximal distance =0.00256124
 next E    =   -26.976380   (d E  =  -0.00004)


--------------------------------------------------------------------------------------------------------


  
 reached required accuracy - stopping structural energy minimisation
     LOOP+:  cpu time    1.2746: real time    1.3058
    4ORBIT:  cpu time    0.0001: real time    0.0001

 total amount of memory used by VASP on root node    39795. kBytes
========================================================================

   base      :      30000. kBytes
   nonlr-proj:        317. kBytes
   fftplans  :       2467. kBytes
   grid      :       6195. kBytes
   one-center:         31. kBytes
   wavefun   :        785. kBytes
 
  
  
 General timing and accounting informations for this job:
 ========================================================
  
                  Total CPU time used (sec):      333.238
                            User time (sec):      329.519
                          System time (sec):        3.718
                         Elapsed time (sec):      348.003
  
                   Maximum memory used (kb):      138672.
                   Average memory used (kb):           0.
  
                          Minor page faults:        69543
                          Major page faults:            0
                 Voluntary context switches:        20739
