 vasp.5.4.4.18Apr17-6-g9f103f2a35 (build Jan 21 2021 13:12:21) complex          
  
 executed on             LinuxIFC date 2021.12.20  22:32:43
 running on   16 total cores
 distrk:  each k-point on   16 cores,    1 groups
 distr:  one band on NCORES_PER_BAND=   1 cores,   16 groups


--------------------------------------------------------------------------------------------------------


 INCAR:
 POTCAR:    PAW_PBE W 08Apr2002                   

 ----------------------------------------------------------------------------- 
|                                                                             |
|           W    W    AA    RRRRR   N    N  II  N    N   GGGG   !!!           |
|           W    W   A  A   R    R  NN   N  II  NN   N  G    G  !!!           |
|           W    W  A    A  R    R  N N  N  II  N N  N  G       !!!           |
|           W WW W  AAAAAA  RRRRR   N  N N  II  N  N N  G  GGG   !            |
|           WW  WW  A    A  R   R   N   NN  II  N   NN  G    G                |
|           W    W  A    A  R    R  N    N  II  N    N   GGGG   !!!           |
|                                                                             |
|      For optimal performance we recommend to set                            |
|        NCORE= 4 - approx SQRT( number of cores)                             |
|      NCORE specifies how many cores store one orbital (NPAR=cpu/NCORE).     |
|      This setting can  greatly improve the performance of VASP for DFT.     |
|      The default,   NCORE=1            might be grossly inefficient         |
|      on modern multi-core architectures or massively parallel machines.     |
|      Do your own testing !!!!                                               |
|      Unfortunately you need to use the default for GW and RPA calculations. |
|      (for HF NCORE is supported but not extensively tested yet)             |
|                                                                             |
 ----------------------------------------------------------------------------- 

 POTCAR:    PAW_PBE W 08Apr2002                   
   VRHFIN =W : 6s5d                                                             
   LEXCH  = PE                                                                  
   EATOM  =   204.6103 eV,   15.0384 Ry                                         
                                                                                
   TITEL  = PAW_PBE W 08Apr2002                                                 
   LULTRA =        F    use ultrasoft PP ?                                      
   IUNSCR =        1    unscreen: 0-lin 1-nonlin 2-no                           
   RPACOR =    2.330    partial core radius                                     
   POMASS =  183.850; ZVAL   =    6.000    mass and valenz                      
   RCORE  =    2.750    outmost cutoff radius                                   
   RWIGS  =    2.750; RWIGS  =    1.455    wigner-seitz radius (au A)           
   ENMAX  =  223.057; ENMIN  =  167.293 eV                                      
   RCLOC  =    2.147    cutoff for local pot                                    
   LCOR   =        T    correct aug charges                                     
   LPAW   =        T    paw PP                                                  
   EAUG   =  373.438                                                            
   DEXC   =    0.000                                                            
   RMAX   =    2.801    core radius for proj-oper                               
   RAUG   =    1.300    factor for augmentation sphere                          
   RDEP   =    2.886    radius for radial grids                                 
   RDEPT  =    2.230    core radius for aug-charge                              
                                                                                
   Atomic configuration                                                         
   16 entries                                                                   
     n  l   j            E        occ.                                          
     1  0  0.50    -69465.5836   2.0000                                         
     2  0  0.50    -11986.2642   2.0000                                         
     2  1  1.50    -10479.8616   6.0000                                         
     3  0  0.50     -2759.0758   2.0000                                         
     3  1  1.50     -2313.1857   6.0000                                         
     3  2  2.50     -1801.1185  10.0000                                         
     4  0  0.50      -567.6791   2.0000                                         
     4  1  1.50      -421.4694   6.0000                                         
     4  2  2.50      -236.3473  10.0000                                         
     4  3  3.50       -31.2666  14.0000                                         
     5  0  0.50       -77.1085   2.0000                                         
     5  1  1.50       -41.3856   6.0000                                         
     5  2  2.50        -3.3185   5.0000                                         
     6  0  0.50        -5.1438   1.0000                                         
     6  1  0.50        -3.8096   0.0000                                         
     5  3  2.50        -1.3606   0.0000                                         
   Description                                                                  
     l       E           TYP  RCUT    TYP  RCUT                                 
     2     -3.3185288     23  2.500                                             
     2     -1.5965414     23  2.500                                             
     0     -5.1438054     23  2.500                                             
     0      4.9117504     23  2.500                                             
     1      2.7211652     23  2.750                                             
     1     27.2116520     23  2.750                                             
  local pseudopotential read in
  partial core-charges read in
  partial kinetic energy density read in
  atomic valenz-charges read in
  non local Contribution for L=           2  read in
    real space projection operators read in
  non local Contribution for L=           2  read in
    real space projection operators read in
  non local Contribution for L=           0  read in
    real space projection operators read in
  non local Contribution for L=           0  read in
    real space projection operators read in
  non local Contribution for L=           1  read in
    real space projection operators read in
  non local Contribution for L=           1  read in
    real space projection operators read in
    PAW grid and wavefunctions read in
 
   number of l-projection  operators is LMAX  =           6
   number of lm-projection operators is LMMAX =          18
 
  PAW_PBE W 08Apr2002                   :
 energy of atom  1       EATOM= -204.6103
 kinetic energy error for atom=    0.0299 (will be added to EATOM!!)
 
 
 POSCAR: O dimer in a box                        
  positions in direct lattice
  velocities in cartesian coordinates
 exchange correlation table for  LEXCH =        8
   RHO(1)=    0.500       N(1)  =     2000
   RHO(2)=  100.500       N(2)  =     4000
 


--------------------------------------------------------------------------------------------------------


 ion  position               nearest neighbor table
   1  0.000  0.000  0.000-   2 2.40
   2  0.000  0.000  0.200-   1 2.40
 
  LATTYP: Found a simple cubic cell.
 ALAT       =    12.0000000000
  
  Lattice vectors:
  
 A1 = (  12.0000000000,   0.0000000000,   0.0000000000)
 A2 = (   0.0000000000,  12.0000000000,   0.0000000000)
 A3 = (   0.0000000000,   0.0000000000,  12.0000000000)


Analysis of symmetry for initial positions (statically):
=====================================================================
 Subroutine PRICEL returns:
 Original cell was already a primitive cell.
 

 Routine SETGRP: Setting up the symmetry group for a 
 simple cubic supercell.


 Subroutine GETGRP returns: Found 16 space group operations
 (whereof  8 operations were pure point group operations)
 out of a pool of 48 trial point group operations.


The static configuration has the point symmetry C_4v.
 The point group associated with its full space group is D_4h.


Analysis of symmetry for dynamics (positions and initial velocities):
=====================================================================
 Subroutine PRICEL returns:
 Original cell was already a primitive cell.
 

 Routine SETGRP: Setting up the symmetry group for a 
 simple cubic supercell.


 Subroutine GETGRP returns: Found 16 space group operations
 (whereof  8 operations were pure point group operations)
 out of a pool of 48 trial point group operations.


The dynamic configuration has the point symmetry C_4v.
 The point group associated with its full space group is D_4h.


Analysis of constrained symmetry for selective dynamics:
=====================================================================
 Subroutine PRICEL returns:
 Original cell was already a primitive cell.
 

 Routine SETGRP: Setting up the symmetry group for a 
 simple cubic supercell.


 Subroutine GETGRP returns: Found 16 space group operations
 (whereof  8 operations were pure point group operations)
 out of a pool of 48 trial point group operations.


The constrained configuration has the point symmetry C_4v.
 The point group associated with its full space group is D_4h.


Analysis of structural, dynamic, and magnetic symmetry:
=====================================================================
 Subroutine PRICEL returns:
 Original cell was already a primitive cell.
 

 Routine SETGRP: Setting up the symmetry group for a 
 simple cubic supercell.


 Subroutine GETGRP returns: Found 16 space group operations
 (whereof  8 operations were pure point group operations)
 out of a pool of 48 trial point group operations.


The magnetic configuration has the point symmetry C_4v.
 The point group associated with its full space group is D_4h.


 Subroutine INISYM returns: Found 16 space group operations
 (whereof  8 operations are pure point group operations),
 and found     1 'primitive' translations

 
 
 KPOINTS: Gamma-point only                        

Automatic generation of k-mesh.
Space group operators:
 irot       det(A)        alpha          n_x          n_y          n_z        tau_x        tau_y        tau_z
    1     1.000000     0.000000     1.000000     0.000000     0.000000     0.000000     0.000000     0.000000
    2     1.000000    90.000000     0.000000     0.000000    -1.000000     0.000000     0.000000     0.000000
    3     1.000000   180.000000     0.000000     0.000000     1.000000     0.000000     0.000000     0.000000
    4     1.000000    90.000000     0.000000     0.000000     1.000000     0.000000     0.000000     0.000000
    5    -1.000000   180.000000     1.000000     0.000000     0.000000     0.000000     0.000000     0.000000
    6    -1.000000   180.000000     0.707107     0.707107     0.000000     0.000000     0.000000     0.000000
    7    -1.000000   180.000000     0.000000     1.000000     0.000000     0.000000     0.000000     0.000000
    8    -1.000000   180.000000     0.707107    -0.707107     0.000000     0.000000     0.000000     0.000000
    9    -1.000000     0.000000     1.000000     0.000000     0.000000     0.000000     0.000000     0.200000
   10    -1.000000    90.000000     0.000000     0.000000    -1.000000     0.000000     0.000000     0.200000
   11    -1.000000   180.000000     0.000000     0.000000     1.000000     0.000000     0.000000     0.200000
   12    -1.000000    90.000000     0.000000     0.000000     1.000000     0.000000     0.000000     0.200000
   13     1.000000   180.000000     1.000000     0.000000     0.000000     0.000000     0.000000     0.200000
   14     1.000000   180.000000     0.707107     0.707107     0.000000     0.000000     0.000000     0.200000
   15     1.000000   180.000000     0.000000     1.000000     0.000000     0.000000     0.000000     0.200000
   16     1.000000   180.000000     0.707107    -0.707107     0.000000     0.000000     0.000000     0.200000
 
 Subroutine IBZKPT returns following result:
 ===========================================
 
 Found      6 irreducible k-points:
 
 Following reciprocal coordinates:
            Coordinates               Weight
  0.125000  0.125000  0.125000      8.000000
  0.375000  0.125000  0.125000     16.000000
  0.375000  0.375000  0.125000      8.000000
  0.125000  0.125000  0.375000      8.000000
  0.375000  0.125000  0.375000     16.000000
  0.375000  0.375000  0.375000      8.000000
 
 Following cartesian coordinates:
            Coordinates               Weight
  0.010417  0.010417  0.010417      8.000000
  0.031250  0.010417  0.010417     16.000000
  0.031250  0.031250  0.010417      8.000000
  0.010417  0.010417  0.031250      8.000000
  0.031250  0.010417  0.031250     16.000000
  0.031250  0.031250  0.031250      8.000000
 


--------------------------------------------------------------------------------------------------------




 Dimension of arrays:
   k-points           NKPTS =      6   k-points in BZ     NKDIM =      6   number of bands    NBANDS=     16
   number of dos      NEDOS =    301   number of ions     NIONS =      2
   non local maximal  LDIM  =      6   non local SUM 2l+1 LMDIM =     18
   total plane-waves  NPLWV = 110592
   max r-space proj   IRMAX =      1   max aug-charges    IRDMAX=   3852
   dimension x,y,z NGX =    48 NGY =   48 NGZ =   48
   dimension x,y,z NGXF=    96 NGYF=   96 NGZF=   96
   support grid    NGXF=    96 NGYF=   96 NGZF=   96
   ions per type =               2
   NGX,Y,Z   is equivalent  to a cutoff of   6.65,  6.65,  6.65 a.u.
   NGXF,Y,Z  is equivalent  to a cutoff of  13.30, 13.30, 13.30 a.u.

 SYSTEM =  Te                                      
 POSCAR =  O dimer in a box                        

 Startparameter for this run:
   NWRITE =      2    write-flag & timer
   PREC   = normal    normal or accurate (medium, high low for compatibility)
   ISTART =      0    job   : 0-new  1-cont  2-samecut
   ICHARG =      2    charge: 1-file 2-atom 10-const
   ISPIN  =      2    spin polarized calculation?
   LNONCOLLINEAR =      F non collinear calculations
   LSORBIT =      F    spin-orbit coupling
   INIWAV =      1    electr: 0-lowe 1-rand  2-diag
   LASPH  =      F    aspherical Exc in radial PAW
   METAGGA=      F    non-selfconsistent MetaGGA calc.

 Electronic Relaxation 1
   ENCUT  =  223.1 eV  16.39 Ry    4.05 a.u.  14.61 14.61 14.61*2*pi/ulx,y,z
   ENINI  =  223.1     initial cutoff
   ENAUG  =  373.4 eV  augmentation charge cutoff
   NELM   =     60;   NELMIN=  2; NELMDL= -5     # of ELM steps 
   EDIFF  = 0.1E-03   stopping-criterion for ELM
   LREAL  =      F    real-space projection
   NLSPLINE    = F    spline interpolate recip. space projectors
   LCOMPAT=      F    compatible to vasp.4.4
   GGA_COMPAT  = T    GGA compatible to vasp.4.4-vasp.4.6
   LMAXPAW     = -100 max onsite density
   LMAXMIX     =    2 max onsite mixed and CHGCAR
   VOSKOWN=      0    Vosko Wilk Nusair interpolation
   ROPT   =    0.00000
 Ionic relaxation
   EDIFFG = 0.1E-02   stopping-criterion for IOM
   NSW    =    100    number of steps for IOM
   NBLOCK =      1;   KBLOCK =    100    inner block; outer block 
   IBRION =      2    ionic relax: 0-MD 1-quasi-New 2-CG
   NFREE  =      1    steps in history (QN), initial steepest desc. (CG)
   ISIF   =      2    stress and relaxation
   IWAVPR =     11    prediction:  0-non 1-charg 2-wave 3-comb
   ISYM   =      2    0-nonsym 1-usesym 2-fastsym
   LCORR  =      T    Harris-Foulkes like correction to forces

   POTIM  = 0.5000    time-step for ionic-motion
   TEIN   =    0.0    initial temperature
   TEBEG  =    0.0;   TEEND  =   0.0 temperature during run
   SMASS  =  -3.00    Nose mass-parameter (am)
   estimated Nose-frequenzy (Omega)   =  0.10E-29 period in steps =****** mass=  -0.329E-26a.u.
   SCALEE = 1.0000    scale energy and forces
   NPACO  =    256;   APACO  = 16.0  distance and # of slots for P.C.
   PSTRESS=    0.0 pullay stress

  Mass of Ions in am
   POMASS = 183.85
  Ionic Valenz
   ZVAL   =   6.00
  Atomic Wigner-Seitz radii
   RWIGS  =  -1.00
  virtual crystal weights 
   VCA    =   1.00
   NELECT =      12.0000    total number of electrons
   NUPDOWN=      -1.0000    fix difference up-down

 DOS related values:
   EMIN   =  10.00;   EMAX   =-10.00  energy-range for DOS
   EFERMI =   0.00
   ISMEAR =     0;   SIGMA  =   0.20  broadening in eV -4-tet -1-fermi 0-gaus

 Electronic relaxation 2 (details)
   IALGO  =     38    algorithm
   LDIAG  =      T    sub-space diagonalisation (order eigenvalues)
   LSUBROT=      F    optimize rotation matrix (better conditioning)
   TURBO    =      0    0=normal 1=particle mesh
   IRESTART =      0    0=no restart 2=restart with 2 vectors
   NREBOOT  =      0    no. of reboots
   NMIN     =      0    reboot dimension
   EREF     =   0.00    reference energy to select bands
   IMIX   =      4    mixing-type and parameters
     AMIX     =   0.40;   BMIX     =  1.00
     AMIX_MAG =   1.60;   BMIX_MAG =  1.00
     AMIN     =   0.10
     WC   =   100.;   INIMIX=   1;  MIXPRE=   1;  MAXMIX= -45

 Intra band minimization:
   WEIMIN = 0.0010     energy-eigenvalue tresh-hold
   EBREAK =  0.16E-05  absolut break condition
   DEPER  =   0.30     relativ break condition  

   TIME   =   0.40     timestep for ELM

  volume/ion in A,a.u.               =     864.00      5830.56
  Fermi-wavevector in a.u.,A,eV,Ry     =   0.312335  0.590228  1.327291  0.097553
  Thomas-Fermi vector in A             =   1.191693
 
 Write flags
   LWAVE        =      T    write WAVECAR
   LDOWNSAMPLE  =      F    k-point downsampling of WAVECAR
   LCHARG       =      T    write CHGCAR
   LVTOT        =      F    write LOCPOT, total local potential
   LVHAR        =      F    write LOCPOT, Hartree potential only
   LELF         =      F    write electronic localiz. function (ELF)
   LORBIT       =      0    0 simple, 1 ext, 2 COOP (PROOUT), +10 PAW based schemes


 Dipole corrections
   LMONO  =      F    monopole corrections only (constant potential shift)
   LDIPOL =      F    correct potential (dipole corrections)
   IDIPOL =      0    1-x, 2-y, 3-z, 4-all directions 
   EPSILON=  1.0000000 bulk dielectric constant

 Exchange correlation treatment:
   GGA     =    --    GGA type
   LEXCH   =     8    internal setting for exchange type
   VOSKOWN=      0    Vosko Wilk Nusair interpolation
   LHFCALC =     F    Hartree Fock is set to
   LHFONE  =     F    Hartree Fock one center treatment
   AEXX    =    0.0000 exact exchange contribution

 Linear response parameters
   LEPSILON=     F    determine dielectric tensor
   LRPA    =     F    only Hartree local field effects (RPA)
   LNABLA  =     F    use nabla operator in PAW spheres
   LVEL    =     F    velocity operator in full k-point grid
   LINTERFAST=   F  fast interpolation
   KINTER  =     0    interpolate to denser k-point grid
   CSHIFT  =0.1000    complex shift for real part using Kramers Kronig
   OMEGAMAX=  -1.0    maximum frequency
   DEG_THRESHOLD= 0.2000000E-02 threshold for treating states as degnerate
   RTIME   =   -0.100 relaxation time in fs
  (WPLASMAI=    0.000 imaginary part of plasma frequency in eV, 0.658/RTIME)
   DFIELD  = 0.0000000 0.0000000 0.0000000 field for delta impulse in time
 
 Orbital magnetization related:
   ORBITALMAG=     F  switch on orbital magnetization
   LCHIMAG   =     F  perturbation theory with respect to B field
   DQ        =  0.001000  dq finite difference perturbation B field
   LLRAUG    =     F  two centre corrections for induced B field



--------------------------------------------------------------------------------------------------------


 conjugate gradient relaxation of ions
   using selective dynamics as specified on POSCAR
 charge density and potential will be updated during run
 spin polarized calculation
 Variant of blocked Davidson
 Davidson routine will perform the subspace rotation
 perform sub-space diagonalisation
    after iterative eigenvector-optimisation
 modified Broyden-mixing scheme, WC =      100.0
 initial mixing is a Kerker type mixing with AMIX =  0.4000 and BMIX =      1.0000
 Hartree-type preconditioning will be used
 using additional bands           10
 reciprocal scheme for non local part
 use partial core corrections
 calculate Harris-corrections to forces 
   (improved forces if not selfconsistent)
 use gradient corrections 
 use of overlap-Matrix (Vanderbilt PP)
 Gauss-broadening in eV      SIGMA  =   0.20


--------------------------------------------------------------------------------------------------------


  energy-cutoff  :      223.06
  volume of cell :     1728.00
      direct lattice vectors                 reciprocal lattice vectors
    12.000000000  0.000000000  0.000000000     0.083333333  0.000000000  0.000000000
     0.000000000 12.000000000  0.000000000     0.000000000  0.083333333  0.000000000
     0.000000000  0.000000000 12.000000000     0.000000000  0.000000000  0.083333333

  length of vectors
    12.000000000 12.000000000 12.000000000     0.083333333  0.083333333  0.083333333


 
 k-points in units of 2pi/SCALE and weight: Gamma-point only                        
   0.01041667  0.01041667  0.01041667       0.125
   0.03125000  0.01041667  0.01041667       0.250
   0.03125000  0.03125000  0.01041667       0.125
   0.01041667  0.01041667  0.03125000       0.125
   0.03125000  0.01041667  0.03125000       0.250
   0.03125000  0.03125000  0.03125000       0.125
 
 k-points in reciprocal lattice and weights: Gamma-point only                        
   0.12500000  0.12500000  0.12500000       0.125
   0.37500000  0.12500000  0.12500000       0.250
   0.37500000  0.37500000  0.12500000       0.125
   0.12500000  0.12500000  0.37500000       0.125
   0.37500000  0.12500000  0.37500000       0.250
   0.37500000  0.37500000  0.37500000       0.125
 
 position of ions in fractional coordinates (direct lattice) 
   0.00000000  0.00000000  0.00000000
   0.00000000  0.00000000  0.20000000
 
 position of ions in cartesian coordinates  (Angst):
   0.00000000  0.00000000  0.00000000
   0.00000000  0.00000000  2.40000000
 


--------------------------------------------------------------------------------------------------------


 k-point  1 :   0.1250 0.1250 0.1250  plane waves:   13088
 k-point  2 :   0.3750 0.1250 0.1250  plane waves:   13070
 k-point  3 :   0.3750 0.3750 0.1250  plane waves:   13050
 k-point  4 :   0.1250 0.1250 0.3750  plane waves:   13070
 k-point  5 :   0.3750 0.1250 0.3750  plane waves:   13050
 k-point  6 :   0.3750 0.3750 0.3750  plane waves:   13061

 maximum and minimum number of plane-waves per node :     13088    13050

 maximum number of plane-waves:     13088
 maximum index in each direction: 
   IXMAX=   14   IYMAX=   14   IZMAX=   14
   IXMIN=  -14   IYMIN=  -14   IZMIN=  -14


 serial   3D FFT for wavefunctions
 parallel 3D FFT for charge:
    minimum data exchange during FFTs selected (reduces bandwidth)


 total amount of memory used by VASP MPI-rank0    59632. kBytes
=======================================================================

   base      :      30000. kBytes
   nonl-proj :      11726. kBytes
   fftplans  :       2356. kBytes
   grid      :      12966. kBytes
   one-center:         62. kBytes
   wavefun   :       2522. kBytes
 
     INWAV:  cpu time    0.0001: real time    0.0001
 Broyden mixing: mesh for mixing (old mesh)
   NGX = 29   NGY = 29   NGZ = 29
  (NGX  = 96   NGY  = 96   NGZ  = 96)
  gives a total of  24389 points

 initial charge density was supplied:
 charge density of overlapping atoms calculated
 number of electron      12.0000000 magnetization       2.0000000
 keeping initial charge density in first step


--------------------------------------------------------------------------------------------------------


 Maximum index for augmentation-charges          285 (set IRDMAX)


--------------------------------------------------------------------------------------------------------


 First call to EWALD:  gamma=   0.148
 Maximum number of real-space cells 3x 3x 3
 Maximum number of reciprocal cells 3x 3x 3

    FEWALD:  cpu time    0.0010: real time    0.0010


--------------------------------------- Iteration      1(   1)  ---------------------------------------


    POTLOK:  cpu time    0.0518: real time    0.0548
    SETDIJ:  cpu time    0.0035: real time    0.0035
     EDDAV:  cpu time    0.1711: real time    0.1876
       DOS:  cpu time    0.0005: real time    0.0005
    --------------------------------------------
      LOOP:  cpu time    0.2270: real time    0.2465

 eigenvalue-minimisations  :   384
 total energy-change (2. order) : 0.3076447E+02  (-0.1236199E+03)
 number of electron      12.0000000 magnetization       2.0000000
 augmentation part       12.0000000 magnetization       2.0000000

 Free energy of the ion-electron system (eV)
  ---------------------------------------------------
  alpha Z        PSCENC =         1.68711278
  Ewald energy   TEWEN  =       -25.30622451
  -Hartree energ DENC   =      -353.59846773
  -exchange      EXHF   =         0.00000000
  -V(xc)+E(xc)   XCENC  =      -100.27792781
  PAW double counting   =       483.57643779     -365.30187148
  entropy T*S    EENTRO =        -0.17233196
  eigenvalues    EBANDS =       -19.00304612
  atomic energy  EATOM  =       409.16079036
  Solvation  Ediel_sol  =         0.00000000
  ---------------------------------------------------
  free energy    TOTEN  =        30.76447132 eV

  energy without entropy =       30.93680328  energy(sigma->0) =       30.85063730


--------------------------------------------------------------------------------------------------------




--------------------------------------- Iteration      1(   2)  ---------------------------------------


     EDDAV:  cpu time    0.3383: real time    0.3466
       DOS:  cpu time    0.0004: real time    0.0004
    --------------------------------------------
      LOOP:  cpu time    0.3387: real time    0.3470

 eigenvalue-minimisations  :   768
 total energy-change (2. order) :-0.3639468E+02  (-0.3607100E+02)
 number of electron      12.0000000 magnetization       2.0000000
 augmentation part       12.0000000 magnetization       2.0000000

 Free energy of the ion-electron system (eV)
  ---------------------------------------------------
  alpha Z        PSCENC =         1.68711278
  Ewald energy   TEWEN  =       -25.30622451
  -Hartree energ DENC   =      -353.59846773
  -exchange      EXHF   =         0.00000000
  -V(xc)+E(xc)   XCENC  =      -100.27792781
  PAW double counting   =       483.57643779     -365.30187148
  entropy T*S    EENTRO =        -0.07539831
  eigenvalues    EBANDS =       -55.49465639
  atomic energy  EATOM  =       409.16079036
  Solvation  Ediel_sol  =         0.00000000
  ---------------------------------------------------
  free energy    TOTEN  =        -5.63020530 eV

  energy without entropy =       -5.55480699  energy(sigma->0) =       -5.59250615


--------------------------------------------------------------------------------------------------------




--------------------------------------- Iteration      1(   3)  ---------------------------------------


     EDDAV:  cpu time    0.3068: real time    0.3116
       DOS:  cpu time    0.0004: real time    0.0004
    --------------------------------------------
      LOOP:  cpu time    0.3072: real time    0.3120

 eigenvalue-minimisations  :   752
 total energy-change (2. order) :-0.8382588E+01  (-0.8034374E+01)
 number of electron      12.0000000 magnetization       2.0000000
 augmentation part       12.0000000 magnetization       2.0000000

 Free energy of the ion-electron system (eV)
  ---------------------------------------------------
  alpha Z        PSCENC =         1.68711278
  Ewald energy   TEWEN  =       -25.30622451
  -Hartree energ DENC   =      -353.59846773
  -exchange      EXHF   =         0.00000000
  -V(xc)+E(xc)   XCENC  =      -100.27792781
  PAW double counting   =       483.57643779     -365.30187148
  entropy T*S    EENTRO =        -0.15209633
  eigenvalues    EBANDS =       -63.80054653
  atomic energy  EATOM  =       409.16079036
  Solvation  Ediel_sol  =         0.00000000
  ---------------------------------------------------
  free energy    TOTEN  =       -14.01279347 eV

  energy without entropy =      -13.86069714  energy(sigma->0) =      -13.93674530


--------------------------------------------------------------------------------------------------------




--------------------------------------- Iteration      1(   4)  ---------------------------------------


     EDDAV:  cpu time    0.1787: real time    0.1807
       DOS:  cpu time    0.0004: real time    0.0004
    --------------------------------------------
      LOOP:  cpu time    0.1791: real time    0.1811

 eigenvalue-minimisations  :   416
 total energy-change (2. order) :-0.9512792E-01  (-0.9485342E-01)
 number of electron      12.0000000 magnetization       2.0000000
 augmentation part       12.0000000 magnetization       2.0000000

 Free energy of the ion-electron system (eV)
  ---------------------------------------------------
  alpha Z        PSCENC =         1.68711278
  Ewald energy   TEWEN  =       -25.30622451
  -Hartree energ DENC   =      -353.59846773
  -exchange      EXHF   =         0.00000000
  -V(xc)+E(xc)   XCENC  =      -100.27792781
  PAW double counting   =       483.57643779     -365.30187148
  entropy T*S    EENTRO =        -0.15169727
  eigenvalues    EBANDS =       -63.89607352
  atomic energy  EATOM  =       409.16079036
  Solvation  Ediel_sol  =         0.00000000
  ---------------------------------------------------
  free energy    TOTEN  =       -14.10792139 eV

  energy without entropy =      -13.95622412  energy(sigma->0) =      -14.03207276


--------------------------------------------------------------------------------------------------------




--------------------------------------- Iteration      1(   5)  ---------------------------------------


     EDDAV:  cpu time    0.2251: real time    0.2271
       DOS:  cpu time    0.0004: real time    0.0004
    CHARGE:  cpu time    0.0361: real time    0.0375
    MIXING:  cpu time    0.0011: real time    0.0011
    --------------------------------------------
      LOOP:  cpu time    0.2627: real time    0.2662

 eigenvalue-minimisations  :   544
 total energy-change (2. order) :-0.1570597E-02  (-0.1570376E-02)
 number of electron      12.0000007 magnetization       1.9891020
 augmentation part        1.3506473 magnetization       0.2049921

 Broyden mixing:
  rms(total) = 0.10986E+01    rms(broyden)= 0.10983E+01
  rms(prec ) = 0.12446E+01
  weight for this iteration     100.00

 Free energy of the ion-electron system (eV)
  ---------------------------------------------------
  alpha Z        PSCENC =         1.68711278
  Ewald energy   TEWEN  =       -25.30622451
  -Hartree energ DENC   =      -353.59846773
  -exchange      EXHF   =         0.00000000
  -V(xc)+E(xc)   XCENC  =      -100.27792781
  PAW double counting   =       483.57643779     -365.30187148
  entropy T*S    EENTRO =        -0.15167556
  eigenvalues    EBANDS =       -63.89766583
  atomic energy  EATOM  =       409.16079036
  Solvation  Ediel_sol  =         0.00000000
  ---------------------------------------------------
  free energy    TOTEN  =       -14.10949199 eV

  energy without entropy =      -13.95781644  energy(sigma->0) =      -14.03365421


--------------------------------------------------------------------------------------------------------




--------------------------------------- Iteration      1(   6)  ---------------------------------------


    POTLOK:  cpu time    0.0495: real time    0.0497
    SETDIJ:  cpu time    0.0037: real time    0.0037
     EDDAV:  cpu time    0.2373: real time    0.2394
       DOS:  cpu time    0.0004: real time    0.0004
    CHARGE:  cpu time    0.0339: real time    0.0348
    MIXING:  cpu time    0.0016: real time    0.0054
    --------------------------------------------
      LOOP:  cpu time    0.3263: real time    0.3334

 eigenvalue-minimisations  :   576
 total energy-change (2. order) : 0.1473700E+01  (-0.3766633E+00)
 number of electron      12.0000010 magnetization       2.0933861
 augmentation part        1.4060774 magnetization       0.1469388

 Broyden mixing:
  rms(total) = 0.48872E+00    rms(broyden)= 0.48867E+00
  rms(prec ) = 0.53931E+00
  weight for this iteration     100.00

 eigenvalues of (default mixing * dielectric matrix)
  average eigenvalue GAMMA=   1.3736
  1.3736

 Free energy of the ion-electron system (eV)
  ---------------------------------------------------
  alpha Z        PSCENC =         1.68711278
  Ewald energy   TEWEN  =       -25.30622451
  -Hartree energ DENC   =      -353.48133058
  -exchange      EXHF   =         0.00000000
  -V(xc)+E(xc)   XCENC  =       -99.87306426
  PAW double counting   =       593.50667721     -475.99216449
  entropy T*S    EENTRO =        -0.17177382
  eigenvalues    EBANDS =       -62.16581432
  atomic energy  EATOM  =       409.16079036
  Solvation  Ediel_sol  =         0.00000000
  ---------------------------------------------------
  free energy    TOTEN  =       -12.63579163 eV

  energy without entropy =      -12.46401781  energy(sigma->0) =      -12.54990472


--------------------------------------------------------------------------------------------------------




--------------------------------------- Iteration      1(   7)  ---------------------------------------


    POTLOK:  cpu time    0.0488: real time    0.0491
    SETDIJ:  cpu time    0.0030: real time    0.0030
     EDDAV:  cpu time    0.2088: real time    0.2121
       DOS:  cpu time    0.0004: real time    0.0004
    CHARGE:  cpu time    0.0345: real time    0.0364
    MIXING:  cpu time    0.0012: real time    0.0019
    --------------------------------------------
      LOOP:  cpu time    0.2968: real time    0.3030

 eigenvalue-minimisations  :   496
 total energy-change (2. order) : 0.2987478E+00  (-0.1368873E+00)
 number of electron      12.0000013 magnetization       2.1895822
 augmentation part        1.4456127 magnetization       0.0916163

 Broyden mixing:
  rms(total) = 0.12435E+00    rms(broyden)= 0.12426E+00
  rms(prec ) = 0.13106E+00
  weight for this iteration     100.00

 eigenvalues of (default mixing * dielectric matrix)
  average eigenvalue GAMMA=   1.2791
  0.7593  1.7989

 Free energy of the ion-electron system (eV)
  ---------------------------------------------------
  alpha Z        PSCENC =         1.68711278
  Ewald energy   TEWEN  =       -25.30622451
  -Hartree energ DENC   =      -353.78810427
  -exchange      EXHF   =         0.00000000
  -V(xc)+E(xc)   XCENC  =       -99.58209449
  PAW double counting   =       695.02609260     -578.02662746
  entropy T*S    EENTRO =        -0.18761820
  eigenvalues    EBANDS =       -61.32037066
  atomic energy  EATOM  =       409.16079036
  Solvation  Ediel_sol  =         0.00000000
  ---------------------------------------------------
  free energy    TOTEN  =       -12.33704384 eV

  energy without entropy =      -12.14942564  energy(sigma->0) =      -12.24323474


--------------------------------------------------------------------------------------------------------




--------------------------------------- Iteration      1(   8)  ---------------------------------------


    POTLOK:  cpu time    0.0491: real time    0.0494
    SETDIJ:  cpu time    0.0031: real time    0.0031
     EDDAV:  cpu time    0.1892: real time    0.1910
       DOS:  cpu time    0.0004: real time    0.0004
    CHARGE:  cpu time    0.0353: real time    0.0367
    MIXING:  cpu time    0.0011: real time    0.0011
    --------------------------------------------
      LOOP:  cpu time    0.2782: real time    0.2817

 eigenvalue-minimisations  :   448
 total energy-change (2. order) :-0.2012294E-01  (-0.4305732E-02)
 number of electron      12.0000013 magnetization       2.2511806
 augmentation part        1.4794181 magnetization      -0.3832630

 Broyden mixing:
  rms(total) = 0.14454E+00    rms(broyden)= 0.14428E+00
  rms(prec ) = 0.15006E+00
  weight for this iteration     100.00

 eigenvalues of (default mixing * dielectric matrix)
  average eigenvalue GAMMA=   0.8530
  1.7989  0.7593  0.0009

 Free energy of the ion-electron system (eV)
  ---------------------------------------------------
  alpha Z        PSCENC =         1.68711278
  Ewald energy   TEWEN  =       -25.30622451
  -Hartree energ DENC   =      -353.89991573
  -exchange      EXHF   =         0.00000000
  -V(xc)+E(xc)   XCENC  =       -99.44132347
  PAW double counting   =       713.77403843     -596.85391227
  entropy T*S    EENTRO =        -0.19357072
  eigenvalues    EBANDS =       -61.28416164
  atomic energy  EATOM  =       409.16079036
  Solvation  Ediel_sol  =         0.00000000
  ---------------------------------------------------
  free energy    TOTEN  =       -12.35716678 eV

  energy without entropy =      -12.16359605  energy(sigma->0) =      -12.26038142


--------------------------------------------------------------------------------------------------------




--------------------------------------- Iteration      1(   9)  ---------------------------------------


    POTLOK:  cpu time    0.0488: real time    0.0492
    SETDIJ:  cpu time    0.0030: real time    0.0030
     EDDAV:  cpu time    0.2028: real time    0.2042
       DOS:  cpu time    0.0004: real time    0.0004
    CHARGE:  cpu time    0.0322: real time    0.0323
    MIXING:  cpu time    0.0012: real time    0.0012
    --------------------------------------------
      LOOP:  cpu time    0.2884: real time    0.2903

 eigenvalue-minimisations  :   480
 total energy-change (2. order) : 0.7163918E-02  (-0.6653459E-03)
 number of electron      12.0000014 magnetization       1.9771061
 augmentation part        1.4832350 magnetization      -0.8235532

 Broyden mixing:
  rms(total) = 0.16155E+00    rms(broyden)= 0.16149E+00
  rms(prec ) = 0.16697E+00
  weight for this iteration     100.00

 eigenvalues of (default mixing * dielectric matrix)
  average eigenvalue GAMMA=   1.0448
  1.8258  0.9722  0.7603  0.6208

 Free energy of the ion-electron system (eV)
  ---------------------------------------------------
  alpha Z        PSCENC =         1.68711278
  Ewald energy   TEWEN  =       -25.30622451
  -Hartree energ DENC   =      -354.09122832
  -exchange      EXHF   =         0.00000000
  -V(xc)+E(xc)   XCENC  =       -99.38503610
  PAW double counting   =       715.72359276     -598.80460914
  entropy T*S    EENTRO =        -0.18776052
  eigenvalues    EBANDS =       -61.14664018
  atomic energy  EATOM  =       409.16079036
  Solvation  Ediel_sol  =         0.00000000
  ---------------------------------------------------
  free energy    TOTEN  =       -12.35000286 eV

  energy without entropy =      -12.16224234  energy(sigma->0) =      -12.25612260


--------------------------------------------------------------------------------------------------------




--------------------------------------- Iteration      1(  10)  ---------------------------------------


    POTLOK:  cpu time    0.0488: real time    0.0492
    SETDIJ:  cpu time    0.0031: real time    0.0031
     EDDAV:  cpu time    0.1892: real time    0.1901
       DOS:  cpu time    0.0004: real time    0.0004
    CHARGE:  cpu time    0.0328: real time    0.0337
    MIXING:  cpu time    0.0014: real time    0.0020
    --------------------------------------------
      LOOP:  cpu time    0.2756: real time    0.2785

 eigenvalue-minimisations  :   448
 total energy-change (2. order) : 0.7246767E-02  (-0.5404578E-02)
 number of electron      12.0000013 magnetization       1.7157951
 augmentation part        1.4752918 magnetization      -0.4510326

 Broyden mixing:
  rms(total) = 0.92438E-01    rms(broyden)= 0.91887E-01
  rms(prec ) = 0.10039E+00
  weight for this iteration     100.00

 eigenvalues of (default mixing * dielectric matrix)
  average eigenvalue GAMMA=   1.1708
  1.5073  1.8934  1.0427  0.7761  0.6347

 Free energy of the ion-electron system (eV)
  ---------------------------------------------------
  alpha Z        PSCENC =         1.68711278
  Ewald energy   TEWEN  =       -25.30622451
  -Hartree energ DENC   =      -353.59017884
  -exchange      EXHF   =         0.00000000
  -V(xc)+E(xc)   XCENC  =       -99.54099882
  PAW double counting   =       714.09985931     -597.18774213
  entropy T*S    EENTRO =        -0.17976404
  eigenvalues    EBANDS =       -61.48561021
  atomic energy  EATOM  =       409.16079036
  Solvation  Ediel_sol  =         0.00000000
  ---------------------------------------------------
  free energy    TOTEN  =       -12.34275609 eV

  energy without entropy =      -12.16299206  energy(sigma->0) =      -12.25287407


--------------------------------------------------------------------------------------------------------




--------------------------------------- Iteration      1(  11)  ---------------------------------------


    POTLOK:  cpu time    0.0485: real time    0.0487
    SETDIJ:  cpu time    0.0030: real time    0.0030
     EDDAV:  cpu time    0.2067: real time    0.2077
       DOS:  cpu time    0.0004: real time    0.0004
    CHARGE:  cpu time    0.0309: real time    0.0310
    MIXING:  cpu time    0.0013: real time    0.0015
    --------------------------------------------
      LOOP:  cpu time    0.2909: real time    0.2924

 eigenvalue-minimisations  :   496
 total energy-change (2. order) : 0.5759870E-01  (-0.3698553E-02)
 number of electron      12.0000013 magnetization       1.1830317
 augmentation part        1.4737226 magnetization      -0.6855843

 Broyden mixing:
  rms(total) = 0.88464E-01    rms(broyden)= 0.88076E-01
  rms(prec ) = 0.94944E-01
  weight for this iteration     100.00

 eigenvalues of (default mixing * dielectric matrix)
  average eigenvalue GAMMA=   1.1702
  1.8607  1.9527  0.9753  0.9753  0.6286  0.6286

 Free energy of the ion-electron system (eV)
  ---------------------------------------------------
  alpha Z        PSCENC =         1.68711278
  Ewald energy   TEWEN  =       -25.30622451
  -Hartree energ DENC   =      -353.79244740
  -exchange      EXHF   =         0.00000000
  -V(xc)+E(xc)   XCENC  =       -99.58465003
  PAW double counting   =       721.51107552     -604.59878498
  entropy T*S    EENTRO =        -0.13846735
  eigenvalues    EBANDS =       -61.22356178
  atomic energy  EATOM  =       409.16079036
  Solvation  Ediel_sol  =         0.00000000
  ---------------------------------------------------
  free energy    TOTEN  =       -12.28515739 eV

  energy without entropy =      -12.14669004  energy(sigma->0) =      -12.21592371


--------------------------------------------------------------------------------------------------------




--------------------------------------- Iteration      1(  12)  ---------------------------------------


    POTLOK:  cpu time    0.0488: real time    0.0492
    SETDIJ:  cpu time    0.0030: real time    0.0030
     EDDAV:  cpu time    0.1927: real time    0.1939
       DOS:  cpu time    0.0004: real time    0.0004
    CHARGE:  cpu time    0.0344: real time    0.0353
    MIXING:  cpu time    0.0016: real time    0.0016
    --------------------------------------------
      LOOP:  cpu time    0.2809: real time    0.2834

 eigenvalue-minimisations  :   416
 total energy-change (2. order) : 0.2267548E+00  (-0.1106765E-01)
 number of electron      12.0000014 magnetization       1.6438810
 augmentation part        1.4861425 magnetization      -0.0633212

 Broyden mixing:
  rms(total) = 0.19641E+00    rms(broyden)= 0.19633E+00
  rms(prec ) = 0.20064E+00
  weight for this iteration     100.00

 eigenvalues of (default mixing * dielectric matrix)
  average eigenvalue GAMMA=   1.0613
  2.0131  1.2092  0.8958  0.6598  0.6598  0.9957  0.9957

 Free energy of the ion-electron system (eV)
  ---------------------------------------------------
  alpha Z        PSCENC =         1.68711278
  Ewald energy   TEWEN  =       -25.30622451
  -Hartree energ DENC   =      -354.02016579
  -exchange      EXHF   =         0.00000000
  -V(xc)+E(xc)   XCENC  =       -99.53134587
  PAW double counting   =       730.08466822     -613.15677800
  entropy T*S    EENTRO =        -0.14360097
  eigenvalues    EBANDS =       -60.83285885
  atomic energy  EATOM  =       409.16079036
  Solvation  Ediel_sol  =         0.00000000
  ---------------------------------------------------
  free energy    TOTEN  =       -12.05840263 eV

  energy without entropy =      -11.91480166  energy(sigma->0) =      -11.98660215


--------------------------------------------------------------------------------------------------------




--------------------------------------- Iteration      1(  13)  ---------------------------------------


    POTLOK:  cpu time    0.0499: real time    0.0502
    SETDIJ:  cpu time    0.0033: real time    0.0033
     EDDAV:  cpu time    0.1719: real time    0.1729
       DOS:  cpu time    0.0004: real time    0.0004
    CHARGE:  cpu time    0.0320: real time    0.0321
    MIXING:  cpu time    0.0015: real time    0.0015
    --------------------------------------------
      LOOP:  cpu time    0.2589: real time    0.2603

 eigenvalue-minimisations  :   384
 total energy-change (2. order) :-0.2226851E+00  (-0.7041791E-02)
 number of electron      12.0000014 magnetization       2.1663633
 augmentation part        1.4708251 magnetization       0.3225282

 Broyden mixing:
  rms(total) = 0.10370E+00    rms(broyden)= 0.10369E+00
  rms(prec ) = 0.10682E+00
  weight for this iteration     100.00

 eigenvalues of (default mixing * dielectric matrix)
  average eigenvalue GAMMA=   1.2243
  2.5042  1.3348  1.3348  1.3709  1.1594  0.7429  0.6739  0.6739

 Free energy of the ion-electron system (eV)
  ---------------------------------------------------
  alpha Z        PSCENC =         1.68711278
  Ewald energy   TEWEN  =       -25.30622451
  -Hartree energ DENC   =      -354.42335197
  -exchange      EXHF   =         0.00000000
  -V(xc)+E(xc)   XCENC  =       -99.58668973
  PAW double counting   =       732.04364857     -615.12531530
  entropy T*S    EENTRO =        -0.13116403
  eigenvalues    EBANDS =       -60.59989387
  atomic energy  EATOM  =       409.16079036
  Solvation  Ediel_sol  =         0.00000000
  ---------------------------------------------------
  free energy    TOTEN  =       -12.28108770 eV

  energy without entropy =      -12.14992367  energy(sigma->0) =      -12.21550568


--------------------------------------------------------------------------------------------------------




--------------------------------------- Iteration      1(  14)  ---------------------------------------


    POTLOK:  cpu time    0.0487: real time    0.0490
    SETDIJ:  cpu time    0.0031: real time    0.0031
     EDDAV:  cpu time    0.2000: real time    0.2015
       DOS:  cpu time    0.0004: real time    0.0004
    CHARGE:  cpu time    0.0315: real time    0.0320
    MIXING:  cpu time    0.0015: real time    0.0015
    --------------------------------------------
      LOOP:  cpu time    0.2851: real time    0.2875

 eigenvalue-minimisations  :   480
 total energy-change (2. order) :-0.8320313E-01  (-0.7008894E-02)
 number of electron      12.0000014 magnetization       2.8117422
 augmentation part        1.4709761 magnetization       0.5237839

 Broyden mixing:
  rms(total) = 0.97757E-01    rms(broyden)= 0.97396E-01
  rms(prec ) = 0.99393E-01
  weight for this iteration     100.00

 eigenvalues of (default mixing * dielectric matrix)
  average eigenvalue GAMMA=   1.2024
  1.4451  1.4451  2.4153  1.1417  1.1417  1.1268  0.7973  0.6864  0.6219

 Free energy of the ion-electron system (eV)
  ---------------------------------------------------
  alpha Z        PSCENC =         1.68711278
  Ewald energy   TEWEN  =       -25.30622451
  -Hartree energ DENC   =      -355.10923060
  -exchange      EXHF   =         0.00000000
  -V(xc)+E(xc)   XCENC  =       -99.46884575
  PAW double counting   =       739.68629203     -622.77864595
  entropy T*S    EENTRO =        -0.18398984
  eigenvalues    EBANDS =       -60.05154936
  atomic energy  EATOM  =       409.16079036
  Solvation  Ediel_sol  =         0.00000000
  ---------------------------------------------------
  free energy    TOTEN  =       -12.36429083 eV

  energy without entropy =      -12.18030099  energy(sigma->0) =      -12.27229591


--------------------------------------------------------------------------------------------------------




--------------------------------------- Iteration      1(  15)  ---------------------------------------


    POTLOK:  cpu time    0.0489: real time    0.0494
    SETDIJ:  cpu time    0.0031: real time    0.0031
     EDDAV:  cpu time    0.1886: real time    0.1893
       DOS:  cpu time    0.0004: real time    0.0004
    CHARGE:  cpu time    0.0308: real time    0.0309
    MIXING:  cpu time    0.0017: real time    0.0017
    --------------------------------------------
      LOOP:  cpu time    0.2734: real time    0.2748

 eigenvalue-minimisations  :   448
 total energy-change (2. order) :-0.7545757E-01  (-0.6002203E-02)
 number of electron      12.0000014 magnetization       3.0275089
 augmentation part        1.4991858 magnetization      -0.2654953

 Broyden mixing:
  rms(total) = 0.21232E+00    rms(broyden)= 0.21153E+00
  rms(prec ) = 0.21591E+00
  weight for this iteration     100.00

 eigenvalues of (default mixing * dielectric matrix)
  average eigenvalue GAMMA=   1.1187
  2.4028  1.4848  1.4848  1.2959  1.2959  0.8393  0.8393  0.6585  0.5824  0.3037

 Free energy of the ion-electron system (eV)
  ---------------------------------------------------
  alpha Z        PSCENC =         1.68711278
  Ewald energy   TEWEN  =       -25.30622451
  -Hartree energ DENC   =      -355.37283683
  -exchange      EXHF   =         0.00000000
  -V(xc)+E(xc)   XCENC  =       -99.20490117
  PAW double counting   =       738.04325060     -621.15160376
  entropy T*S    EENTRO =        -0.14146896
  eigenvalues    EBANDS =       -60.15386691
  atomic energy  EATOM  =       409.16079036
  Solvation  Ediel_sol  =         0.00000000
  ---------------------------------------------------
  free energy    TOTEN  =       -12.43974840 eV

  energy without entropy =      -12.29827944  energy(sigma->0) =      -12.36901392


--------------------------------------------------------------------------------------------------------




--------------------------------------- Iteration      1(  16)  ---------------------------------------


    POTLOK:  cpu time    0.0488: real time    0.0491
    SETDIJ:  cpu time    0.0030: real time    0.0031
     EDDAV:  cpu time    0.2248: real time    0.2261
       DOS:  cpu time    0.0004: real time    0.0004
    CHARGE:  cpu time    0.0324: real time    0.0325
    MIXING:  cpu time    0.0018: real time    0.0020
    --------------------------------------------
      LOOP:  cpu time    0.3112: real time    0.3132

 eigenvalue-minimisations  :   544
 total energy-change (2. order) :-0.3834438E-01  (-0.5184313E-03)
 number of electron      12.0000014 magnetization       3.2129944
 augmentation part        1.5029150 magnetization      -0.1929813

 Broyden mixing:
  rms(total) = 0.19473E+00    rms(broyden)= 0.19464E+00
  rms(prec ) = 0.19973E+00
  weight for this iteration     100.00

 eigenvalues of (default mixing * dielectric matrix)
  average eigenvalue GAMMA=   1.0707
  2.3785  1.5134  1.5134  1.3498  1.3498  0.8206  0.8206  0.6785  0.6166  0.3684
  0.3684

 Free energy of the ion-electron system (eV)
  ---------------------------------------------------
  alpha Z        PSCENC =         1.68711278
  Ewald energy   TEWEN  =       -25.30622451
  -Hartree energ DENC   =      -355.54986565
  -exchange      EXHF   =         0.00000000
  -V(xc)+E(xc)   XCENC  =       -99.11206525
  PAW double counting   =       737.86427053     -620.97577321
  entropy T*S    EENTRO =        -0.12219064
  eigenvalues    EBANDS =       -60.12414717
  atomic energy  EATOM  =       409.16079036
  Solvation  Ediel_sol  =         0.00000000
  ---------------------------------------------------
  free energy    TOTEN  =       -12.47809278 eV

  energy without entropy =      -12.35590213  energy(sigma->0) =      -12.41699745


--------------------------------------------------------------------------------------------------------




--------------------------------------- Iteration      1(  17)  ---------------------------------------


    POTLOK:  cpu time    0.0486: real time    0.0489
    SETDIJ:  cpu time    0.0030: real time    0.0030
     EDDAV:  cpu time    0.2019: real time    0.2029
       DOS:  cpu time    0.0004: real time    0.0004
    CHARGE:  cpu time    0.0306: real time    0.0307
    MIXING:  cpu time    0.0019: real time    0.0019
    --------------------------------------------
      LOOP:  cpu time    0.2864: real time    0.2878

 eigenvalue-minimisations  :   480
 total energy-change (2. order) :-0.2349134E-01  (-0.3065998E-03)
 number of electron      12.0000014 magnetization       3.2903210
 augmentation part        1.5038065 magnetization      -0.1463772

 Broyden mixing:
  rms(total) = 0.15894E+00    rms(broyden)= 0.15893E+00
  rms(prec ) = 0.16473E+00
  weight for this iteration     100.00

 eigenvalues of (default mixing * dielectric matrix)
  average eigenvalue GAMMA=   1.1596
  1.5543  1.5543  2.0902  1.8922  1.8922  0.7184  0.7184  0.8158  0.8158  0.6683
  0.5974  0.5974

 Free energy of the ion-electron system (eV)
  ---------------------------------------------------
  alpha Z        PSCENC =         1.68711278
  Ewald energy   TEWEN  =       -25.30622451
  -Hartree energ DENC   =      -355.75970192
  -exchange      EXHF   =         0.00000000
  -V(xc)+E(xc)   XCENC  =       -99.02059776
  PAW double counting   =       738.02062149     -621.13070996
  entropy T*S    EENTRO =        -0.11555981
  eigenvalues    EBANDS =       -60.03731479
  atomic energy  EATOM  =       409.16079036
  Solvation  Ediel_sol  =         0.00000000
  ---------------------------------------------------
  free energy    TOTEN  =       -12.50158412 eV

  energy without entropy =      -12.38602431  energy(sigma->0) =      -12.44380421


--------------------------------------------------------------------------------------------------------




--------------------------------------- Iteration      1(  18)  ---------------------------------------


    POTLOK:  cpu time    0.0489: real time    0.0492
    SETDIJ:  cpu time    0.0030: real time    0.0030
     EDDAV:  cpu time    0.1650: real time    0.1657
       DOS:  cpu time    0.0004: real time    0.0003
    CHARGE:  cpu time    0.0323: real time    0.0324
    MIXING:  cpu time    0.0019: real time    0.0019
    --------------------------------------------
      LOOP:  cpu time    0.2514: real time    0.2526

 eigenvalue-minimisations  :   384
 total energy-change (2. order) :-0.1228430E-01  (-0.4494205E-03)
 number of electron      12.0000014 magnetization       3.1153304
 augmentation part        1.5002140 magnetization      -0.3239140

 Broyden mixing:
  rms(total) = 0.13923E+00    rms(broyden)= 0.13923E+00
  rms(prec ) = 0.14289E+00
  weight for this iteration     100.00

 eigenvalues of (default mixing * dielectric matrix)
  average eigenvalue GAMMA=   1.1995
  1.6032  1.6032  2.4559  1.9263  1.9263  0.9087  0.9087  0.8648  0.8648  0.6427
  0.6427  0.6234  0.6234

 Free energy of the ion-electron system (eV)
  ---------------------------------------------------
  alpha Z        PSCENC =         1.68711278
  Ewald energy   TEWEN  =       -25.30622451
  -Hartree energ DENC   =      -356.35591920
  -exchange      EXHF   =         0.00000000
  -V(xc)+E(xc)   XCENC  =       -98.99705505
  PAW double counting   =       740.68194136     -623.75755374
  entropy T*S    EENTRO =        -0.11519699
  eigenvalues    EBANDS =       -59.51176344
  atomic energy  EATOM  =       409.16079036
  Solvation  Ediel_sol  =         0.00000000
  ---------------------------------------------------
  free energy    TOTEN  =       -12.51386842 eV

  energy without entropy =      -12.39867143  energy(sigma->0) =      -12.45626992


--------------------------------------------------------------------------------------------------------




--------------------------------------- Iteration      1(  19)  ---------------------------------------


    POTLOK:  cpu time    0.0489: real time    0.0492
    SETDIJ:  cpu time    0.0030: real time    0.0030
     EDDAV:  cpu time    0.1670: real time    0.1677
       DOS:  cpu time    0.0007: real time    0.0007
    CHARGE:  cpu time    0.0322: real time    0.0323
    MIXING:  cpu time    0.0019: real time    0.0019
    --------------------------------------------
      LOOP:  cpu time    0.2537: real time    0.2549

 eigenvalue-minimisations  :   384
 total energy-change (2. order) : 0.1942127E-01  (-0.1734007E-02)
 number of electron      12.0000014 magnetization       3.5665097
 augmentation part        1.4940202 magnetization       0.1660128

 Broyden mixing:
  rms(total) = 0.18227E+00    rms(broyden)= 0.18227E+00
  rms(prec ) = 0.18355E+00
  weight for this iteration     100.00

 eigenvalues of (default mixing * dielectric matrix)
  average eigenvalue GAMMA=   1.2380
  2.7487  2.7487  1.5776  1.5776  1.8701  0.8882  0.8882  1.0390  0.6965  0.6965
  0.7857  0.6449  0.6449  0.5255

 Free energy of the ion-electron system (eV)
  ---------------------------------------------------
  alpha Z        PSCENC =         1.68711278
  Ewald energy   TEWEN  =       -25.30622451
  -Hartree energ DENC   =      -356.73432662
  -exchange      EXHF   =         0.00000000
  -V(xc)+E(xc)   XCENC  =       -99.11605459
  PAW double counting   =       743.41465994     -626.44939969
  entropy T*S    EENTRO =        -0.12403630
  eigenvalues    EBANDS =       -59.02696852
  atomic energy  EATOM  =       409.16079036
  Solvation  Ediel_sol  =         0.00000000
  ---------------------------------------------------
  free energy    TOTEN  =       -12.49444715 eV

  energy without entropy =      -12.37041085  energy(sigma->0) =      -12.43242900


--------------------------------------------------------------------------------------------------------




--------------------------------------- Iteration      1(  20)  ---------------------------------------


    POTLOK:  cpu time    0.0488: real time    0.0490
    SETDIJ:  cpu time    0.0030: real time    0.0031
     EDDAV:  cpu time    0.1880: real time    0.1887
       DOS:  cpu time    0.0004: real time    0.0004
    CHARGE:  cpu time    0.0322: real time    0.0323
    MIXING:  cpu time    0.0023: real time    0.0023
    --------------------------------------------
      LOOP:  cpu time    0.2747: real time    0.2758

 eigenvalue-minimisations  :   448
 total energy-change (2. order) :-0.7459378E-01  (-0.1555689E-02)
 number of electron      12.0000014 magnetization       3.6638778
 augmentation part        1.4935321 magnetization       0.2141214

 Broyden mixing:
  rms(total) = 0.94606E-01    rms(broyden)= 0.94545E-01
  rms(prec ) = 0.95293E-01
  weight for this iteration     100.00

 eigenvalues of (default mixing * dielectric matrix)
  average eigenvalue GAMMA=   1.2257
  2.8043  2.8043  1.5635  1.5635  1.9277  0.8337  0.8337  0.8264  0.8264  0.9964
  0.8709  0.6457  0.6457  0.6219  0.6219

 Free energy of the ion-electron system (eV)
  ---------------------------------------------------
  alpha Z        PSCENC =         1.68711278
  Ewald energy   TEWEN  =       -25.30622451
  -Hartree energ DENC   =      -357.48469970
  -exchange      EXHF   =         0.00000000
  -V(xc)+E(xc)   XCENC  =       -98.92556675
  PAW double counting   =       745.72550589     -628.73411060
  entropy T*S    EENTRO =        -0.11398117
  eigenvalues    EBANDS =       -58.57786722
  atomic energy  EATOM  =       409.16079036
  Solvation  Ediel_sol  =         0.00000000
  ---------------------------------------------------
  free energy    TOTEN  =       -12.56904093 eV

  energy without entropy =      -12.45505975  energy(sigma->0) =      -12.51205034


--------------------------------------------------------------------------------------------------------




--------------------------------------- Iteration      1(  21)  ---------------------------------------


    POTLOK:  cpu time    0.0484: real time    0.0487
    SETDIJ:  cpu time    0.0031: real time    0.0031
     EDDAV:  cpu time    0.1999: real time    0.2006
       DOS:  cpu time    0.0004: real time    0.0004
    CHARGE:  cpu time    0.0309: real time    0.0310
    MIXING:  cpu time    0.0021: real time    0.0021
    --------------------------------------------
      LOOP:  cpu time    0.2847: real time    0.2859

 eigenvalue-minimisations  :   480
 total energy-change (2. order) :-0.1161197E-01  (-0.9244722E-04)
 number of electron      12.0000014 magnetization       4.0818755
 augmentation part        1.4930309 magnetization       0.6286704

 Broyden mixing:
  rms(total) = 0.74463E-01    rms(broyden)= 0.74460E-01
  rms(prec ) = 0.75145E-01
  weight for this iteration     100.00

 eigenvalues of (default mixing * dielectric matrix)
  average eigenvalue GAMMA=   1.2983
  4.0343  3.2124  1.5504  1.5504  1.9293  0.8104  0.8104  1.2868  0.7132  0.7132
  0.7484  0.7484  0.7452  0.7452  0.6347  0.5404

 Free energy of the ion-electron system (eV)
  ---------------------------------------------------
  alpha Z        PSCENC =         1.68711278
  Ewald energy   TEWEN  =       -25.30622451
  -Hartree energ DENC   =      -357.58687081
  -exchange      EXHF   =         0.00000000
  -V(xc)+E(xc)   XCENC  =       -98.88044560
  PAW double counting   =       745.26793674     -628.27466550
  entropy T*S    EENTRO =        -0.11418427
  eigenvalues    EBANDS =       -58.53410207
  atomic energy  EATOM  =       409.16079036
  Solvation  Ediel_sol  =         0.00000000
  ---------------------------------------------------
  free energy    TOTEN  =       -12.58065290 eV

  energy without entropy =      -12.46646862  energy(sigma->0) =      -12.52356076


--------------------------------------------------------------------------------------------------------




--------------------------------------- Iteration      1(  22)  ---------------------------------------


    POTLOK:  cpu time    0.0488: real time    0.0491
    SETDIJ:  cpu time    0.0030: real time    0.0030
     EDDAV:  cpu time    0.1751: real time    0.1758
       DOS:  cpu time    0.0004: real time    0.0003
    CHARGE:  cpu time    0.0307: real time    0.0308
    MIXING:  cpu time    0.0024: real time    0.0024
    --------------------------------------------
      LOOP:  cpu time    0.2604: real time    0.2615

 eigenvalue-minimisations  :   416
 total energy-change (2. order) :-0.1758581E-01  (-0.1155848E-02)
 number of electron      12.0000014 magnetization       4.2228815
 augmentation part        1.4911445 magnetization       0.7295979

 Broyden mixing:
  rms(total) = 0.12283E-01    rms(broyden)= 0.12202E-01
  rms(prec ) = 0.12698E-01
  weight for this iteration     100.00

 eigenvalues of (default mixing * dielectric matrix)
  average eigenvalue GAMMA=   1.3332
  5.3408  3.1508  1.5463  1.5463  1.8907  1.3869  0.8188  0.8188  0.7543  0.7543
  0.8212  0.8212  0.7088  0.7088  0.6080  0.5402  0.4490

 Free energy of the ion-electron system (eV)
  ---------------------------------------------------
  alpha Z        PSCENC =         1.68711278
  Ewald energy   TEWEN  =       -25.30622451
  -Hartree energ DENC   =      -358.34485366
  -exchange      EXHF   =         0.00000000
  -V(xc)+E(xc)   XCENC  =       -98.66547962
  PAW double counting   =       746.39851582     -629.37914545
  entropy T*S    EENTRO =        -0.12113035
  eigenvalues    EBANDS =       -58.02782406
  atomic energy  EATOM  =       409.16079036
  Solvation  Ediel_sol  =         0.00000000
  ---------------------------------------------------
  free energy    TOTEN  =       -12.59823870 eV

  energy without entropy =      -12.47710835  energy(sigma->0) =      -12.53767352


--------------------------------------------------------------------------------------------------------




--------------------------------------- Iteration      1(  23)  ---------------------------------------


    POTLOK:  cpu time    0.0485: real time    0.0489
    SETDIJ:  cpu time    0.0030: real time    0.0030
     EDDAV:  cpu time    0.2330: real time    0.2339
       DOS:  cpu time    0.0004: real time    0.0004
    CHARGE:  cpu time    0.0312: real time    0.0316
    MIXING:  cpu time    0.0024: real time    0.0024
    --------------------------------------------
      LOOP:  cpu time    0.3185: real time    0.3202

 eigenvalue-minimisations  :   576
 total energy-change (2. order) : 0.2744608E-02  (-0.1655697E-03)
 number of electron      12.0000014 magnetization       4.2465190
 augmentation part        1.4920029 magnetization       0.7125135

 Broyden mixing:
  rms(total) = 0.31639E-01    rms(broyden)= 0.31604E-01
  rms(prec ) = 0.31972E-01
  weight for this iteration     100.00

 eigenvalues of (default mixing * dielectric matrix)
  average eigenvalue GAMMA=   1.3388
  5.8248  2.9200  1.5459  1.5459  2.0775  1.4852  0.8196  0.8196  0.8333  0.8333
  0.8869  0.8869  0.6252  0.6252  0.6595  0.6595  0.5565  0.4945

 Free energy of the ion-electron system (eV)
  ---------------------------------------------------
  alpha Z        PSCENC =         1.68711278
  Ewald energy   TEWEN  =       -25.30622451
  -Hartree energ DENC   =      -358.49366579
  -exchange      EXHF   =         0.00000000
  -V(xc)+E(xc)   XCENC  =       -98.58434276
  PAW double counting   =       745.81733589     -628.79569960
  entropy T*S    EENTRO =        -0.12717084
  eigenvalues    EBANDS =       -57.95362964
  atomic energy  EATOM  =       409.16079036
  Solvation  Ediel_sol  =         0.00000000
  ---------------------------------------------------
  free energy    TOTEN  =       -12.59549409 eV

  energy without entropy =      -12.46832326  energy(sigma->0) =      -12.53190868


--------------------------------------------------------------------------------------------------------




--------------------------------------- Iteration      1(  24)  ---------------------------------------


    POTLOK:  cpu time    0.0490: real time    0.0494
    SETDIJ:  cpu time    0.0030: real time    0.0030
     EDDAV:  cpu time    0.1706: real time    0.1713
       DOS:  cpu time    0.0004: real time    0.0004
    CHARGE:  cpu time    0.0307: real time    0.0308
    MIXING:  cpu time    0.0025: real time    0.0025
    --------------------------------------------
      LOOP:  cpu time    0.2562: real time    0.2575

 eigenvalue-minimisations  :   400
 total energy-change (2. order) : 0.1099200E-02  (-0.4176681E-04)
 number of electron      12.0000014 magnetization       4.2514578
 augmentation part        1.4916179 magnetization       0.7109618

 Broyden mixing:
  rms(total) = 0.35197E-01    rms(broyden)= 0.35194E-01
  rms(prec ) = 0.35815E-01
  weight for this iteration     100.00

 eigenvalues of (default mixing * dielectric matrix)
  average eigenvalue GAMMA=   1.2707
  5.8305  2.9152  1.5459  1.5459  2.0808  1.4857  0.8196  0.8196  0.8339  0.8339
  0.8867  0.8867  0.6251  0.6251  0.6592  0.6592  0.5565  0.5168  0.0165

 Free energy of the ion-electron system (eV)
  ---------------------------------------------------
  alpha Z        PSCENC =         1.68711278
  Ewald energy   TEWEN  =       -25.30622451
  -Hartree energ DENC   =      -358.60202539
  -exchange      EXHF   =         0.00000000
  -V(xc)+E(xc)   XCENC  =       -98.57031485
  PAW double counting   =       746.29606277     -629.27096060
  entropy T*S    EENTRO =        -0.12796884
  eigenvalues    EBANDS =       -57.86086661
  atomic energy  EATOM  =       409.16079036
  Solvation  Ediel_sol  =         0.00000000
  ---------------------------------------------------
  free energy    TOTEN  =       -12.59439489 eV

  energy without entropy =      -12.46642605  energy(sigma->0) =      -12.53041047


--------------------------------------------------------------------------------------------------------




--------------------------------------- Iteration      1(  25)  ---------------------------------------


    POTLOK:  cpu time    0.0490: real time    0.0494
    SETDIJ:  cpu time    0.0030: real time    0.0030
     EDDAV:  cpu time    0.2409: real time    0.2420
       DOS:  cpu time    0.0004: real time    0.0004
    CHARGE:  cpu time    0.0336: real time    0.0338
    MIXING:  cpu time    0.0026: real time    0.0027
    --------------------------------------------
      LOOP:  cpu time    0.3295: real time    0.3312

 eigenvalue-minimisations  :   592
 total energy-change (2. order) : 0.1944055E-03  (-0.2014008E-05)
 number of electron      12.0000014 magnetization       4.2617972
 augmentation part        1.4916418 magnetization       0.7189770

 Broyden mixing:
  rms(total) = 0.36258E-01    rms(broyden)= 0.36257E-01
  rms(prec ) = 0.36901E-01
  weight for this iteration     100.00

 eigenvalues of (default mixing * dielectric matrix)
  average eigenvalue GAMMA=   1.3344
  5.4593  3.4664  1.5455  1.5455  2.1773  1.5714  0.9940  0.9940  0.8208  0.8208
  1.0598  0.8047  0.8047  0.6475  0.6475  0.7597  0.7270  0.6622  0.6215  0.5574

 Free energy of the ion-electron system (eV)
  ---------------------------------------------------
  alpha Z        PSCENC =         1.68711278
  Ewald energy   TEWEN  =       -25.30622451
  -Hartree energ DENC   =      -358.60828524
  -exchange      EXHF   =         0.00000000
  -V(xc)+E(xc)   XCENC  =       -98.56667635
  PAW double counting   =       746.34426600     -629.31928855
  entropy T*S    EENTRO =        -0.12826319
  eigenvalues    EBANDS =       -57.85763179
  atomic energy  EATOM  =       409.16079036
  Solvation  Ediel_sol  =         0.00000000
  ---------------------------------------------------
  free energy    TOTEN  =       -12.59420049 eV

  energy without entropy =      -12.46593730  energy(sigma->0) =      -12.53006889


--------------------------------------------------------------------------------------------------------




--------------------------------------- Iteration      1(  26)  ---------------------------------------


    POTLOK:  cpu time    0.0488: real time    0.0491
    SETDIJ:  cpu time    0.0031: real time    0.0031
     EDDAV:  cpu time    0.1708: real time    0.1714
       DOS:  cpu time    0.0004: real time    0.0004
    CHARGE:  cpu time    0.0309: real time    0.0310
    MIXING:  cpu time    0.0027: real time    0.0029
    --------------------------------------------
      LOOP:  cpu time    0.2565: real time    0.2578

 eigenvalue-minimisations  :   400
 total energy-change (2. order) :-0.1840555E-03  (-0.1730647E-04)
 number of electron      12.0000014 magnetization       4.2522978
 augmentation part        1.4912801 magnetization       0.7102463

 Broyden mixing:
  rms(total) = 0.35239E-01    rms(broyden)= 0.35229E-01
  rms(prec ) = 0.35776E-01
  weight for this iteration     100.00

 eigenvalues of (default mixing * dielectric matrix)
  average eigenvalue GAMMA=   1.3510
  6.5767  2.9495  1.5459  1.5459  2.2760  1.1784  1.1784  1.5225  0.8178  0.8178
  0.8485  0.8485  0.7914  0.7914  0.8423  0.6384  0.6384  0.6946  0.5925  0.6383
  0.6383

 Free energy of the ion-electron system (eV)
  ---------------------------------------------------
  alpha Z        PSCENC =         1.68711278
  Ewald energy   TEWEN  =       -25.30622451
  -Hartree energ DENC   =      -358.64066894
  -exchange      EXHF   =         0.00000000
  -V(xc)+E(xc)   XCENC  =       -98.56607360
  PAW double counting   =       745.60485509     -628.57834556
  entropy T*S    EENTRO =        -0.12824271
  eigenvalues    EBANDS =       -57.82758746
  atomic energy  EATOM  =       409.16079036
  Solvation  Ediel_sol  =         0.00000000
  ---------------------------------------------------
  free energy    TOTEN  =       -12.59438454 eV

  energy without entropy =      -12.46614183  energy(sigma->0) =      -12.53026319


--------------------------------------------------------------------------------------------------------




--------------------------------------- Iteration      1(  27)  ---------------------------------------


    POTLOK:  cpu time    0.0487: real time    0.0490
    SETDIJ:  cpu time    0.0031: real time    0.0031
     EDDAV:  cpu time    0.1643: real time    0.1650
       DOS:  cpu time    0.0004: real time    0.0004
    CHARGE:  cpu time    0.0324: real time    0.0330
    MIXING:  cpu time    0.0028: real time    0.0028
    --------------------------------------------
      LOOP:  cpu time    0.2518: real time    0.2533

 eigenvalue-minimisations  :   384
 total energy-change (2. order) :-0.1380315E-02  (-0.1901743E-04)
 number of electron      12.0000014 magnetization       4.2324416
 augmentation part        1.4908671 magnetization       0.6978361

 Broyden mixing:
  rms(total) = 0.34782E-01    rms(broyden)= 0.34769E-01
  rms(prec ) = 0.35306E-01
  weight for this iteration     100.00

 eigenvalues of (default mixing * dielectric matrix)
  average eigenvalue GAMMA=   1.3420
  6.4186  1.5460  1.5460  2.5520  2.5520  1.1652  1.1652  1.2975  1.2975  1.4235
  0.8154  0.8154  0.7919  0.7919  0.7957  0.7957  0.6377  0.6377  0.6496  0.6496
  0.6245  0.5545

 Free energy of the ion-electron system (eV)
  ---------------------------------------------------
  alpha Z        PSCENC =         1.68711278
  Ewald energy   TEWEN  =       -25.30622451
  -Hartree energ DENC   =      -358.67241319
  -exchange      EXHF   =         0.00000000
  -V(xc)+E(xc)   XCENC  =       -98.57329804
  PAW double counting   =       745.60337276     -628.57612925
  entropy T*S    EENTRO =        -0.12733505
  eigenvalues    EBANDS =       -57.79164072
  atomic energy  EATOM  =       409.16079036
  Solvation  Ediel_sol  =         0.00000000
  ---------------------------------------------------
  free energy    TOTEN  =       -12.59576486 eV

  energy without entropy =      -12.46842981  energy(sigma->0) =      -12.53209733


--------------------------------------------------------------------------------------------------------




--------------------------------------- Iteration      1(  28)  ---------------------------------------


    POTLOK:  cpu time    0.0490: real time    0.0493
    SETDIJ:  cpu time    0.0030: real time    0.0031
     EDDAV:  cpu time    0.1713: real time    0.1720
       DOS:  cpu time    0.0004: real time    0.0004
    CHARGE:  cpu time    0.0319: real time    0.0320
    MIXING:  cpu time    0.0031: real time    0.0031
    --------------------------------------------
      LOOP:  cpu time    0.2586: real time    0.2598

 eigenvalue-minimisations  :   400
 total energy-change (2. order) :-0.1371978E-02  (-0.2295420E-04)
 number of electron      12.0000014 magnetization       4.2178144
 augmentation part        1.4911820 magnetization       0.6898293

 Broyden mixing:
  rms(total) = 0.31582E-01    rms(broyden)= 0.31566E-01
  rms(prec ) = 0.31934E-01
  weight for this iteration     100.00

 eigenvalues of (default mixing * dielectric matrix)
  average eigenvalue GAMMA=   1.3814
  6.3633  3.1600  2.5033  1.5462  1.5462  1.7208  1.7208  1.5215  1.0291  1.0291
  0.8157  0.8157  1.0555  0.7774  0.7774  0.8737  0.6426  0.6426  0.7188  0.7188
  0.5794  0.6075  0.6075

 Free energy of the ion-electron system (eV)
  ---------------------------------------------------
  alpha Z        PSCENC =         1.68711278
  Ewald energy   TEWEN  =       -25.30622451
  -Hartree energ DENC   =      -358.58952429
  -exchange      EXHF   =         0.00000000
  -V(xc)+E(xc)   XCENC  =       -98.58662912
  PAW double counting   =       745.05445489     -628.03192448
  entropy T*S    EENTRO =        -0.12651098
  eigenvalues    EBANDS =       -57.85868149
  atomic energy  EATOM  =       409.16079036
  Solvation  Ediel_sol  =         0.00000000
  ---------------------------------------------------
  free energy    TOTEN  =       -12.59713684 eV

  energy without entropy =      -12.47062586  energy(sigma->0) =      -12.53388135


--------------------------------------------------------------------------------------------------------




--------------------------------------- Iteration      1(  29)  ---------------------------------------


    POTLOK:  cpu time    0.0487: real time    0.0491
    SETDIJ:  cpu time    0.0030: real time    0.0031
     EDDAV:  cpu time    0.1635: real time    0.1644
       DOS:  cpu time    0.0004: real time    0.0004
    CHARGE:  cpu time    0.0318: real time    0.0319
    MIXING:  cpu time    0.0031: real time    0.0031
    --------------------------------------------
      LOOP:  cpu time    0.2505: real time    0.2519

 eigenvalue-minimisations  :   384
 total energy-change (2. order) :-0.7442571E-03  (-0.6947913E-04)
 number of electron      12.0000014 magnetization       4.1373435
 augmentation part        1.4917194 magnetization       0.6134607

 Broyden mixing:
  rms(total) = 0.28108E-01    rms(broyden)= 0.28066E-01
  rms(prec ) = 0.28320E-01
  weight for this iteration     100.00

 eigenvalues of (default mixing * dielectric matrix)
  average eigenvalue GAMMA=   1.4617
  5.4774  5.4774  3.3118  1.5461  1.5461  2.2599  1.3774  1.3347  1.3347  1.0487
  1.0487  0.8154  0.8154  0.8113  0.8113  0.8545  0.6379  0.6379  0.7495  0.7495
  0.6460  0.6018  0.6018  0.5863

 Free energy of the ion-electron system (eV)
  ---------------------------------------------------
  alpha Z        PSCENC =         1.68711278
  Ewald energy   TEWEN  =       -25.30622451
  -Hartree energ DENC   =      -358.48271103
  -exchange      EXHF   =         0.00000000
  -V(xc)+E(xc)   XCENC  =       -98.59893775
  PAW double counting   =       743.81430032     -626.79730681
  entropy T*S    EENTRO =        -0.12598636
  eigenvalues    EBANDS =       -57.94891809
  atomic energy  EATOM  =       409.16079036
  Solvation  Ediel_sol  =         0.00000000
  ---------------------------------------------------
  free energy    TOTEN  =       -12.59788109 eV

  energy without entropy =      -12.47189473  energy(sigma->0) =      -12.53488791


--------------------------------------------------------------------------------------------------------




--------------------------------------- Iteration      1(  30)  ---------------------------------------


    POTLOK:  cpu time    0.0491: real time    0.0495
    SETDIJ:  cpu time    0.0030: real time    0.0031
     EDDAV:  cpu time    0.1763: real time    0.1769
       DOS:  cpu time    0.0004: real time    0.0004
    CHARGE:  cpu time    0.0315: real time    0.0317
    MIXING:  cpu time    0.0035: real time    0.0035
    --------------------------------------------
      LOOP:  cpu time    0.2638: real time    0.2650

 eigenvalue-minimisations  :   416
 total energy-change (2. order) :-0.2141628E-02  (-0.5786159E-04)
 number of electron      12.0000014 magnetization       4.0930967
 augmentation part        1.4916935 magnetization       0.5899185

 Broyden mixing:
  rms(total) = 0.15401E-01    rms(broyden)= 0.15363E-01
  rms(prec ) = 0.15578E-01
  weight for this iteration     100.00

 eigenvalues of (default mixing * dielectric matrix)
  average eigenvalue GAMMA=   1.5200
[...]
     12      -0.6107      0.00000
     13      -0.6017      0.00000
     14      -0.0915      0.00000
     15       0.1282      0.00000
     16       0.5218      0.00000

 k-point     3 :       0.3750    0.3750    0.1250
  band No.  band energies     occupation 
      1      -6.0672      1.00000
      2      -6.0671      1.00000
      3      -5.6131      1.00000
      4      -4.9745      1.00000
      5      -3.9124      0.99995
      6      -3.9122      0.99995
      7      -2.8354      0.00009
      8      -1.2281      0.00000
      9      -1.2277      0.00000
     10      -1.2110      0.00000
     11      -1.2103      0.00000
     12      -0.6097      0.00000
     13      -0.6095      0.00000
     14      -0.0433      0.00000
     15       0.1650      0.00000
     16       0.5516      0.00000

 k-point     4 :       0.1250    0.1250    0.3750
  band No.  band energies     occupation 
      1      -6.0672      1.00000
      2      -6.0671      1.00000
      3      -5.6132      1.00000
      4      -4.9736      1.00000
      5      -3.9128      0.99995
      6      -3.9125      0.99995
      7      -2.8456      0.00012
      8      -1.2287      0.00000
      9      -1.2281      0.00000
     10      -1.1832      0.00000
     11      -1.1825      0.00000
     12      -0.6199      0.00000
     13      -0.6194      0.00000
     14      -0.1557      0.00000
     15       0.1984      0.00000
     16       0.5564      0.00000

 k-point     5 :       0.3750    0.1250    0.3750
  band No.  band energies     occupation 
      1      -6.0672      1.00000
      2      -6.0671      1.00000
      3      -5.6129      1.00000
      4      -4.9732      1.00000
      5      -3.9125      0.99995
      6      -3.9124      0.99995
      7      -2.8451      0.00012
      8      -1.2283      0.00000
      9      -1.2281      0.00000
     10      -1.2062      0.00000
     11      -1.1805      0.00000
     12      -0.6320      0.00000
     13      -0.6184      0.00000
     14      -0.1324      0.00000
     15       0.3212      0.00000
     16       0.6139      0.00000

 k-point     6 :       0.3750    0.3750    0.3750
  band No.  band energies     occupation 
      1      -6.0673      1.00000
      2      -6.0673      1.00000
      3      -5.6129      1.00000
      4      -4.9733      1.00000
      5      -3.9125      0.99995
      6      -3.9123      0.99995
      7      -2.8447      0.00012
      8      -1.2284      0.00000
      9      -1.2280      0.00000
     10      -1.2034      0.00000
     11      -1.2028      0.00000
     12      -0.6303      0.00000
     13      -0.6297      0.00000
     14      -0.1160      0.00000
     15       0.4439      0.00000
     16       0.6792      0.00000

 spin component 2

 k-point     1 :       0.1250    0.1250    0.1250
  band No.  band energies     occupation 
      1      -6.0673      1.00000
      2      -6.0672      1.00000
      3      -5.6134      1.00000
      4      -4.9748      1.00000
      5      -3.9128      0.99995
      6      -3.9124      0.99995
      7      -2.8362      0.00009
      8      -1.2286      0.00000
      9      -1.2280      0.00000
     10      -1.1897      0.00000
     11      -1.1889      0.00000
     12      -0.6026      0.00000
     13      -0.6024      0.00000
     14      -0.1602      0.00000
     15       0.0997      0.00000
     16       0.5346      0.00000

 k-point     2 :       0.3750    0.1250    0.1250
  band No.  band energies     occupation 
      1      -6.0672      1.00000
      2      -6.0671      1.00000
      3      -5.6133      1.00000
      4      -4.9746      1.00000
      5      -3.9126      0.99995
      6      -3.9124      0.99995
      7      -2.8358      0.00009
      8      -1.2282      0.00000
      9      -1.2279      0.00000
     10      -1.2141      0.00000
     11      -1.1867      0.00000
     12      -0.6107      0.00000
     13      -0.6017      0.00000
     14      -0.0914      0.00000
     15       0.1282      0.00000
     16       0.5219      0.00000

 k-point     3 :       0.3750    0.3750    0.1250
  band No.  band energies     occupation 
      1      -6.0672      1.00000
      2      -6.0671      1.00000
      3      -5.6131      1.00000
      4      -4.9745      1.00000
      5      -3.9124      0.99995
      6      -3.9122      0.99995
      7      -2.8354      0.00009
      8      -1.2281      0.00000
      9      -1.2277      0.00000
     10      -1.2110      0.00000
     11      -1.2103      0.00000
     12      -0.6097      0.00000
     13      -0.6095      0.00000
     14      -0.0433      0.00000
     15       0.1650      0.00000
     16       0.5517      0.00000

 k-point     4 :       0.1250    0.1250    0.3750
  band No.  band energies     occupation 
      1      -6.0671      1.00000
      2      -6.0671      1.00000
      3      -5.6132      1.00000
      4      -4.9735      1.00000
      5      -3.9128      0.99995
      6      -3.9125      0.99995
      7      -2.8456      0.00012
      8      -1.2287      0.00000
      9      -1.2281      0.00000
     10      -1.1832      0.00000
     11      -1.1825      0.00000
     12      -0.6199      0.00000
     13      -0.6194      0.00000
     14      -0.1557      0.00000
     15       0.1985      0.00000
     16       0.5565      0.00000

 k-point     5 :       0.3750    0.1250    0.3750
  band No.  band energies     occupation 
      1      -6.0672      1.00000
      2      -6.0671      1.00000
      3      -5.6129      1.00000
      4      -4.9732      1.00000
      5      -3.9125      0.99995
      6      -3.9124      0.99995
      7      -2.8451      0.00012
      8      -1.2283      0.00000
      9      -1.2281      0.00000
     10      -1.2062      0.00000
     11      -1.1805      0.00000
     12      -0.6320      0.00000
     13      -0.6183      0.00000
     14      -0.1324      0.00000
     15       0.3212      0.00000
     16       0.6139      0.00000

 k-point     6 :       0.3750    0.3750    0.3750
  band No.  band energies     occupation 
      1      -6.0673      1.00000
      2      -6.0672      1.00000
      3      -5.6129      1.00000
      4      -4.9733      1.00000
      5      -3.9125      0.99995
      6      -3.9123      0.99995
      7      -2.8447      0.00012
      8      -1.2284      0.00000
      9      -1.2281      0.00000
     10      -1.2034      0.00000
     11      -1.2028      0.00000
     12      -0.6303      0.00000
     13      -0.6297      0.00000
     14      -0.1159      0.00000
     15       0.4440      0.00000
     16       0.6793      0.00000


--------------------------------------------------------------------------------------------------------


 soft charge-density along one line, spin component           1
         0         1         2         3         4         5         6         7         8         9
 total charge-density along one line
 
 soft charge-density along one line, spin component           2
         0         1         2         3         4         5         6         7         8         9
 total charge-density along one line
 
 pseudopotential strength for first ion, spin component:           1
 -8.790  -0.000   0.000  -0.000   0.000 -10.114  -0.000   0.000
 -0.000  -8.830   0.000   0.000   0.000  -0.000 -10.162   0.000
  0.000   0.000  -8.904  -0.000  -0.000   0.000   0.000 -10.250
 -0.000   0.000  -0.000  -8.830  -0.000  -0.000   0.000  -0.000
  0.000   0.000  -0.000  -0.000  -8.790   0.000   0.000  -0.000
-10.114  -0.000   0.000  -0.000   0.000 -11.621  -0.000   0.000
 -0.000 -10.162   0.000   0.000   0.000  -0.000 -11.677   0.000
  0.000   0.000 -10.250  -0.000  -0.000   0.000   0.000 -11.782
 -0.000   0.000  -0.000 -10.162  -0.000  -0.000   0.000  -0.000
  0.000   0.000  -0.000  -0.000 -10.114   0.000   0.000  -0.000
  0.000   0.000   0.053   0.000  -0.000   0.000   0.000   0.060
  0.000   0.000   0.089   0.000  -0.000   0.000   0.000   0.101
  0.000   0.069  -0.000  -0.000  -0.000   0.000   0.082  -0.000
 -0.000   0.000   0.293   0.000   0.000  -0.000   0.000   0.338
  0.000  -0.000  -0.000   0.069   0.000   0.000  -0.000  -0.000
  0.000   0.106  -0.000  -0.000  -0.000   0.000   0.125  -0.000
 -0.000   0.000   0.401   0.000   0.000  -0.000   0.000   0.461
  0.000  -0.000  -0.000   0.106   0.000   0.000  -0.000  -0.000
 pseudopotential strength for first ion, spin component:           2
 -8.790  -0.000   0.000  -0.000   0.000 -10.114  -0.000   0.000
 -0.000  -8.830  -0.000  -0.000   0.000  -0.000 -10.162  -0.000
  0.000  -0.000  -8.904  -0.000  -0.000   0.000  -0.000 -10.250
 -0.000  -0.000  -0.000  -8.830  -0.000  -0.000  -0.000  -0.000
  0.000   0.000  -0.000  -0.000  -8.790   0.000   0.000  -0.000
-10.114  -0.000   0.000  -0.000   0.000 -11.621  -0.000   0.000
 -0.000 -10.162  -0.000  -0.000   0.000  -0.000 -11.677  -0.000
  0.000  -0.000 -10.250  -0.000  -0.000   0.000  -0.000 -11.782
 -0.000  -0.000  -0.000 -10.162  -0.000  -0.000  -0.000  -0.000
  0.000   0.000  -0.000  -0.000 -10.114   0.000   0.000  -0.000
  0.000   0.000   0.053   0.000  -0.000   0.000   0.000   0.060
  0.000   0.000   0.089   0.000  -0.000   0.000   0.000   0.101
  0.000   0.069  -0.000   0.000  -0.000  -0.000   0.082  -0.000
  0.000   0.000   0.293   0.000   0.000   0.000   0.000   0.338
  0.000   0.000  -0.000   0.069   0.000   0.000   0.000  -0.000
 -0.000   0.106  -0.000   0.000  -0.000   0.000   0.125  -0.000
  0.000   0.000   0.401   0.000   0.000   0.000   0.000   0.461
  0.000   0.000  -0.000   0.106   0.000   0.000   0.000  -0.000
 total augmentation occupancy for first ion, spin component:           1
  3.555  -0.000   0.000   0.000  -0.000  -1.489   0.000   0.000  -0.000   0.000   0.000   0.000   0.000   0.000   0.000   0.000
  0.000   7.336   0.000   0.000   0.000   0.000  -3.801  -0.000   0.000   0.000   0.000   0.000   0.505   0.000   0.000   0.074
  0.000   0.000   0.557  -0.000  -0.000   0.000  -0.000   0.248   0.000   0.000  -0.091   0.214   0.000  -0.220   0.000   0.000
 -0.000   0.000  -0.000   7.336   0.000  -0.000   0.000   0.000  -3.801   0.000   0.000   0.000   0.000  -0.000   0.505   0.000
 -0.000   0.000  -0.000   0.000   3.554  -0.000  -0.000   0.000  -0.000  -1.488   0.000  -0.000   0.000   0.000  -0.000   0.000
 -1.489  -0.000   0.000  -0.000  -0.000   0.624   0.000   0.000   0.000   0.000   0.000   0.000   0.000   0.000   0.000   0.000
  0.000  -3.801  -0.000   0.000   0.000   0.000   1.970   0.000   0.000   0.000  -0.000  -0.000  -0.262   0.000   0.000  -0.039
  0.000  -0.000   0.248   0.000   0.000   0.000   0.000   0.115   0.000  -0.000  -0.130   0.105   0.000  -0.106   0.000  -0.000
  0.000   0.000   0.000  -3.801   0.000   0.000   0.000   0.000   1.970   0.000   0.000   0.000  -0.000   0.000  -0.262   0.000
  0.000   0.000   0.000   0.000  -1.488   0.000   0.000  -0.000   0.000   0.623   0.000  -0.000  -0.000   0.000  -0.000  -0.000
  0.000   0.000  -0.091   0.000   0.000   0.000  -0.000  -0.130   0.000   0.000   1.863  -0.248   0.000   0.210   0.000  -0.000
  0.000   0.000   0.214   0.000  -0.000   0.000  -0.000   0.105   0.000  -0.000  -0.248   0.107   0.000  -0.104  -0.000  -0.000
  0.000   0.505   0.000   0.000   0.000   0.000  -0.262   0.000  -0.000  -0.000   0.000   0.000   0.035   0.000   0.000   0.005
  0.000   0.000  -0.220  -0.000   0.000   0.000   0.000  -0.106   0.000   0.000   0.210  -0.104   0.000   0.103  -0.000  -0.000
  0.000   0.000   0.000   0.505  -0.000  -0.000   0.000   0.000  -0.262  -0.000   0.000  -0.000   0.000  -0.000   0.035   0.000
  0.000   0.074   0.000   0.000   0.000   0.000  -0.039  -0.000   0.000  -0.000  -0.000  -0.000   0.005  -0.000   0.000   0.001
  0.000  -0.000   0.183   0.000  -0.000   0.000   0.000   0.085   0.000  -0.000  -0.106   0.079  -0.000  -0.079   0.000   0.000
 -0.000   0.000  -0.000   0.074   0.000  -0.000   0.000  -0.000  -0.039   0.000   0.000   0.000  -0.000   0.000   0.005   0.000
 total augmentation occupancy for first ion, spin component:           2
  0.000   0.000   0.000  -0.000   0.000  -0.000   0.000   0.000   0.000   0.000   0.000   0.000   0.000   0.000   0.000  -0.000
  0.000   0.000   0.000   0.000   0.000   0.000  -0.000   0.000   0.000  -0.000  -0.000   0.000  -0.000   0.000   0.000   0.000
  0.000   0.000  -0.000   0.000   0.000   0.000   0.000   0.000   0.000  -0.000  -0.000   0.000   0.000  -0.000   0.000   0.000
 -0.000   0.000   0.000   0.000   0.000  -0.000   0.000  -0.000  -0.000   0.000   0.000   0.000   0.000   0.000  -0.000   0.000
  0.000   0.000   0.000   0.000  -0.000   0.000  -0.000  -0.000  -0.000   0.000   0.000  -0.000   0.000   0.000  -0.000   0.000
 -0.000   0.000   0.000  -0.000   0.000   0.000   0.000   0.000  -0.000   0.000   0.000   0.000   0.000   0.000   0.000   0.000
  0.000  -0.000   0.000   0.000  -0.000   0.000   0.000   0.000   0.000  -0.000   0.000   0.000   0.000  -0.000   0.000  -0.000
  0.000   0.000   0.000  -0.000  -0.000   0.000   0.000   0.000  -0.000  -0.000  -0.000   0.000   0.000  -0.000  -0.000   0.000
  0.000   0.000   0.000  -0.000  -0.000  -0.000   0.000  -0.000   0.000   0.000   0.000   0.000   0.000   0.000   0.000   0.000
  0.000  -0.000  -0.000   0.000   0.000   0.000  -0.000  -0.000   0.000  -0.000   0.000  -0.000   0.000   0.000   0.000   0.000
  0.000  -0.000  -0.000   0.000   0.000   0.000   0.000  -0.000   0.000   0.000   0.000  -0.000   0.000   0.000   0.000   0.000
  0.000   0.000   0.000   0.000  -0.000   0.000   0.000   0.000   0.000  -0.000  -0.000   0.000   0.000  -0.000   0.000   0.000
  0.000  -0.000   0.000   0.000   0.000   0.000   0.000   0.000   0.000   0.000   0.000   0.000  -0.000   0.000   0.000   0.000
  0.000   0.000  -0.000   0.000   0.000   0.000  -0.000  -0.000   0.000   0.000   0.000  -0.000   0.000   0.000   0.000   0.000
  0.000   0.000   0.000  -0.000  -0.000   0.000   0.000  -0.000   0.000   0.000   0.000   0.000   0.000   0.000  -0.000   0.000
 -0.000   0.000   0.000   0.000   0.000   0.000  -0.000   0.000   0.000   0.000   0.000   0.000   0.000   0.000   0.000   0.000
  0.000   0.000   0.000  -0.000  -0.000   0.000   0.000   0.000  -0.000  -0.000  -0.000   0.000   0.000  -0.000   0.000   0.000
  0.000   0.000  -0.000   0.000   0.000  -0.000  -0.000  -0.000  -0.000  -0.000   0.000   0.000   0.000  -0.000   0.000   0.000


------------------------ aborting loop because EDIFF is reached ----------------------------------------


    CHARGE:  cpu time    0.0308: real time    0.0310
    FORLOC:  cpu time    0.0006: real time    0.0006
    FORNL :  cpu time    0.0215: real time    0.0216
    STRESS:  cpu time    0.1298: real time    0.1305
    FORCOR:  cpu time    0.0446: real time    0.0448
    FORHAR:  cpu time    0.0043: real time    0.0043
    MIXING:  cpu time    0.0008: real time    0.0008
    OFIELD:  cpu time    0.0000: real time    0.0000

  FORCE on cell =-STRESS in cart. coord.  units (eV):
  Direction    XX          YY          ZZ          XY          YZ          ZX
  --------------------------------------------------------------------------------------
  Alpha Z     1.68711     1.68711     1.68711
  Ewald     -82.75260   -82.75260   200.10601     0.00000    -0.00000    -0.00000
  Hartree   109.31678   109.31678   199.32054    -0.00000    -0.00000    -0.00000
  E(xc)     -50.19651   -50.19651   -58.05059    -0.00000     0.00000    -0.00000
  Local    -110.22494  -110.22494  -440.99023    -0.00000     0.00000     0.00000
  n-local   -62.22733   -62.22354   -69.03905    -0.00024    -0.00024    -0.00086
  augment    12.03794    12.03794    10.73117     0.00000    -0.00000     0.00000
  Kinetic   181.88050   181.88393   155.29975    -0.00004    -0.00020    -0.00100
  Fock        0.00000     0.00000     0.00000     0.00000     0.00000     0.00000
  -------------------------------------------------------------------------------------
  Total      -0.47543    -0.47543    -0.93528     0.00000     0.00000    -0.00000
  in kB      -0.44081    -0.44081    -0.86718     0.00000     0.00000    -0.00000
  external pressure =       -0.58 kB  Pullay stress =        0.00 kB


 VOLUME and BASIS-vectors are now :
 -----------------------------------------------------------------------------
  energy-cutoff  :      223.06
  volume of cell :     1728.00
      direct lattice vectors                 reciprocal lattice vectors
    12.000000000  0.000000000  0.000000000     0.083333333  0.000000000  0.000000000
     0.000000000 12.000000000  0.000000000     0.000000000  0.083333333  0.000000000
     0.000000000  0.000000000 12.000000000     0.000000000  0.000000000  0.083333333

  length of vectors
    12.000000000 12.000000000 12.000000000     0.083333333  0.083333333  0.083333333


 FORCES acting on ions
    electron-ion (+dipol)            ewald-force                    non-local-force                 convergence-correction
 -----------------------------------------------------------------------------------------------
   -.168E-13 -.308E-13 0.136E+03   0.762E-17 0.265E-16 -.146E+03   -.296E-20 0.254E-20 0.998E+01   -.240E-13 -.216E-13 -.988E-03
   -.340E-14 0.261E-13 -.136E+03   0.645E-17 0.961E-17 0.146E+03   0.635E-20 -.593E-20 -.998E+01   -.136E-13 -.151E-13 0.989E-03
 -----------------------------------------------------------------------------------------------
   -.202E-13 -.474E-14 -.234E-04   0.141E-16 0.361E-16 0.000E+00   0.339E-20 -.339E-20 -.178E-14   -.376E-13 -.367E-13 0.625E-06
 
 
 POSITION                                       TOTAL-FORCE (eV/Angst)
 -----------------------------------------------------------------------------------
      0.00000     -0.00000      0.26585         0.000000      0.000000      0.095438
     -0.00000      0.00000      2.13415        -0.000000     -0.000000     -0.095438
 -----------------------------------------------------------------------------------
    total drift:                               -0.000000     -0.000000     -0.000023


--------------------------------------------------------------------------------------------------------



  FREE ENERGIE OF THE ION-ELECTRON SYSTEM (eV)
  ---------------------------------------------------
  free  energy   TOTEN  =       -15.18694508 eV

  energy  without entropy=      -15.18670263  energy(sigma->0) =      -15.18682386
 
 d Force = 0.2710554E-03[ 0.191E-03, 0.351E-03]  d Energy = 0.2918635E-03-0.208E-04
 d Force =-0.2919435E+00[-0.292E+00,-0.292E+00]  d Ewald  =-0.2919434E+00-0.169E-06


--------------------------------------------------------------------------------------------------------


    POTLOK:  cpu time    0.0506: real time    0.0508


--------------------------------------------------------------------------------------------------------




--------------------------------------------------------------------------------------------------------


  
 reached required accuracy - stopping structural energy minimisation
 writing wavefunctions
     LOOP+:  cpu time    0.9831: real time    1.0216
    4ORBIT:  cpu time    0.0000: real time    0.0000

 total amount of memory used by VASP MPI-rank0    59632. kBytes
=======================================================================

   base      :      30000. kBytes
   nonl-proj :      11726. kBytes
   fftplans  :       2356. kBytes
   grid      :      12966. kBytes
   one-center:         62. kBytes
   wavefun   :       2522. kBytes
 
  
  
 General timing and accounting informations for this job:
 ========================================================
  
                  Total CPU time used (sec):       21.329
                            User time (sec):       19.738
                          System time (sec):        1.591
                         Elapsed time (sec):       22.283
  
                   Maximum memory used (kb):      210032.
                   Average memory used (kb):           0.
  
                          Minor page faults:        48010
                          Major page faults:           36
                 Voluntary context switches:         9281
