 vasp.5.4.4.18Apr17-6-g9f103f2a35 (build Jan 21 2021 13:12:21) complex          
  
 executed on             LinuxIFC date 2021.12.20  22:06:27
 running on   16 total cores
 distrk:  each k-point on   16 cores,    1 groups
 distr:  one band on NCORES_PER_BAND=   1 cores,   16 groups


--------------------------------------------------------------------------------------------------------


 INCAR:
 POTCAR:    PAW_PBE Nb_sv 25May2007               
 POTCAR:    PAW_PBE Cl 17Jan2003                  

 ----------------------------------------------------------------------------- 
|                                                                             |
|           W    W    AA    RRRRR   N    N  II  N    N   GGGG   !!!           |
|           W    W   A  A   R    R  NN   N  II  NN   N  G    G  !!!           |
|           W    W  A    A  R    R  N N  N  II  N N  N  G       !!!           |
|           W WW W  AAAAAA  RRRRR   N  N N  II  N  N N  G  GGG   !            |
|           WW  WW  A    A  R   R   N   NN  II  N   NN  G    G                |
|           W    W  A    A  R    R  N    N  II  N    N   GGGG   !!!           |
|                                                                             |
|      For optimal performance we recommend to set                            |
|        NCORE= 4 - approx SQRT( number of cores)                             |
|      NCORE specifies how many cores store one orbital (NPAR=cpu/NCORE).     |
|      This setting can  greatly improve the performance of VASP for DFT.     |
|      The default,   NCORE=1            might be grossly inefficient         |
|      on modern multi-core architectures or massively parallel machines.     |
|      Do your own testing !!!!                                               |
|      Unfortunately you need to use the default for GW and RPA calculations. |
|      (for HF NCORE is supported but not extensively tested yet)             |
|                                                                             |
 ----------------------------------------------------------------------------- 

 POTCAR:    PAW_PBE Nb_sv 25May2007               
   VRHFIN =Nb: 4p5s4d                                                           
   LEXCH  = PE                                                                  
   EATOM  =  1555.1913 eV,  114.3033 Ry                                         
                                                                                
   TITEL  = PAW_PBE Nb_sv 25May2007                                             
   LULTRA =        F    use ultrasoft PP ?                                      
   IUNSCR =        1    unscreen: 0-lin 1-nonlin 2-no                           
   RPACOR =    1.800    partial core radius                                     
   POMASS =   92.910; ZVAL   =   13.000    mass and valenz                      
   RCORE  =    2.400    outmost cutoff radius                                   
   RWIGS  =    2.400; RWIGS  =    1.270    wigner-seitz radius (au A)           
   ENMAX  =  293.235; ENMIN  =  219.927 eV                                      
   ICORE  =        3    local potential                                         
   LCOR   =        T    correct aug charges                                     
   LPAW   =        T    paw PP                                                  
   EAUG   =  455.659                                                            
   DEXC   =    0.000                                                            
   RMAX   =    2.456    core radius for proj-oper                               
   RAUG   =    1.300    factor for augmentation sphere                          
   RDEP   =    2.451    radius for radial grids                                 
   RDEPT  =    1.956    core radius for aug-charge                              
                                                                                
   Atomic configuration                                                         
   11 entries                                                                   
     n  l   j            E        occ.                                          
     1  0  0.50    -18805.2457   2.0000                                         
     2  0  0.50     -2630.2869   2.0000                                         
     2  1  1.50     -2348.4046   6.0000                                         
     3  0  0.50      -438.8757   2.0000                                         
     3  1  1.50      -346.7588   6.0000                                         
     3  2  2.50      -196.2560  10.0000                                         
     4  0  0.50       -58.3859   2.0000                                         
     5  0  0.50        -3.9816   1.0000                                         
     4  1  1.50       -34.5141   6.0000                                         
     4  2  2.50        -3.0408   4.0000                                         
     4  3  2.50        -1.3606   0.0000                                         
   Description                                                                  
     l       E           TYP  RCUT    TYP  RCUT                                 
     0    -58.3859094     23  2.200                                             
     0     -3.9816262     23  2.200                                             
     1    -34.5140738     23  2.200                                             
     1     13.6058260     23  2.200                                             
     2     -3.0408010     23  2.200                                             
     2     -0.1283038     23  2.200                                             
     3     -1.3605826     23  2.400                                             
  local pseudopotential read in
  partial core-charges read in
  partial kinetic energy density read in
  atomic valenz-charges read in
  non local Contribution for L=           0  read in
    real space projection operators read in
  non local Contribution for L=           0  read in
    real space projection operators read in
  non local Contribution for L=           1  read in
    real space projection operators read in
  non local Contribution for L=           1  read in
    real space projection operators read in
  non local Contribution for L=           2  read in
    real space projection operators read in
  non local Contribution for L=           2  read in
    real space projection operators read in
    PAW grid and wavefunctions read in
 
   number of l-projection  operators is LMAX  =           6
   number of lm-projection operators is LMMAX =          18
 
 POTCAR:    PAW_PBE Cl 17Jan2003                  
   VRHFIN =Cl: s2p5                                                             
   LEXCH  = PE                                                                  
   EATOM  =   409.7259 eV,   30.1140 Ry                                         
                                                                                
   TITEL  = PAW_PBE Cl 17Jan2003                                                
   LULTRA =        F    use ultrasoft PP ?                                      
   IUNSCR =        1    unscreen: 0-lin 1-nonlin 2-no                           
   RPACOR =    1.500    partial core radius                                     
   POMASS =   35.453; ZVAL   =    7.000    mass and valenz                      
   RCORE  =    1.900    outmost cutoff radius                                   
   RWIGS  =    2.100; RWIGS  =    1.111    wigner-seitz radius (au A)           
   ENMAX  =  280.000; ENMIN  =  196.854 eV                                      
   ICORE  =        2    local potential                                         
   LCOR   =        T    correct aug charges                                     
   LPAW   =        T    paw PP                                                  
   EAUG   =  356.192                                                            
   DEXC   =     .000                                                            
   RMAX   =    2.846    core radius for proj-oper                               
   RAUG   =    1.300    factor for augmentation sphere                          
   RDEP   =    2.020    radius for radial grids                                 
   QCUT   =   -4.392; QGAM   =    8.784    optimization parameters              
                                                                                
   Description                                                                  
     l     E      TYP  RCUT    TYP  RCUT                                        
     0   .000     23  1.900                                                     
     0   .000     23  1.900                                                     
     1   .000     23  1.900                                                     
     1   .000     23  1.900                                                     
     2   .000     23  1.900                                                     
  local pseudopotential read in
  partial core-charges read in
  atomic valenz-charges read in
  non local Contribution for L=           0  read in
    real space projection operators read in
  non local Contribution for L=           0  read in
    real space projection operators read in
  non local Contribution for L=           1  read in
    real space projection operators read in
  non local Contribution for L=           1  read in
    real space projection operators read in
    PAW grid and wavefunctions read in
 
   number of l-projection  operators is LMAX  =           4
   number of lm-projection operators is LMMAX =           8
 
  PAW_PBE Nb_sv 25May2007               :
 energy of atom  1       EATOM=-1555.1913
 kinetic energy error for atom=    0.0711 (will be added to EATOM!!)
  PAW_PBE Cl 17Jan2003                  :
 energy of atom  2       EATOM= -409.7259
 kinetic energy error for atom=    0.0170 (will be added to EATOM!!)
 
 
 POSCAR: O dimer in a box                        
  positions in direct lattice
  velocities in cartesian coordinates
 exchange correlation table for  LEXCH =        8
   RHO(1)=    0.500       N(1)  =     2000
   RHO(2)=  100.500       N(2)  =     4000
 


--------------------------------------------------------------------------------------------------------


 ion  position               nearest neighbor table
   1  0.000  0.026  0.036-   2 2.34   3 2.35
   2  0.000  0.974  0.224-   1 2.34
   3  0.000  0.212  0.974-   1 2.35
 
  LATTYP: Found a simple cubic cell.
 ALAT       =    12.0000000000
  
  Lattice vectors:
  
 A1 = (  12.0000000000,   0.0000000000,   0.0000000000)
 A2 = (   0.0000000000,  12.0000000000,   0.0000000000)
 A3 = (   0.0000000000,   0.0000000000,  12.0000000000)


Analysis of symmetry for initial positions (statically):
=====================================================================
 Subroutine PRICEL returns:
 Original cell was already a primitive cell.
 

 Routine SETGRP: Setting up the symmetry group for a 
 simple cubic supercell.


 Subroutine GETGRP returns: Found  2 space group operations
 (whereof  2 operations were pure point group operations)
 out of a pool of 48 trial point group operations.


The static configuration has the point symmetry C_1h.


Analysis of symmetry for dynamics (positions and initial velocities):
=====================================================================
 Subroutine PRICEL returns:
 Original cell was already a primitive cell.
 

 Routine SETGRP: Setting up the symmetry group for a 
 simple cubic supercell.


 Subroutine GETGRP returns: Found  2 space group operations
 (whereof  2 operations were pure point group operations)
 out of a pool of 48 trial point group operations.


The dynamic configuration has the point symmetry C_1h.


Analysis of constrained symmetry for selective dynamics:
=====================================================================
 Subroutine PRICEL returns:
 Original cell was already a primitive cell.
 

 Routine SETGRP: Setting up the symmetry group for a 
 simple cubic supercell.


 Subroutine GETGRP returns: Found  2 space group operations
 (whereof  2 operations were pure point group operations)
 out of a pool of 48 trial point group operations.


The constrained configuration has the point symmetry C_1h.


Analysis of structural, dynamic, and magnetic symmetry:
=====================================================================
 Subroutine PRICEL returns:
 Original cell was already a primitive cell.
 

 Routine SETGRP: Setting up the symmetry group for a 
 simple cubic supercell.


 Subroutine GETGRP returns: Found  2 space group operations
 (whereof  2 operations were pure point group operations)
 out of a pool of 48 trial point group operations.


The magnetic configuration has the point symmetry C_1h.


 Subroutine INISYM returns: Found  2 space group operations
 (whereof  2 operations are pure point group operations),
 and found     1 'primitive' translations

 
 
 KPOINTS: Gamma-point only                        

Automatic generation of k-mesh.
Space group operators:
 irot       det(A)        alpha          n_x          n_y          n_z        tau_x        tau_y        tau_z
    1     1.000000     0.000000     1.000000     0.000000     0.000000     0.000000     0.000000     0.000000
    2    -1.000000   180.000000     1.000000     0.000000     0.000000     0.000000     0.000000     0.000000
 
 Subroutine IBZKPT returns following result:
 ===========================================
 
 Found     16 irreducible k-points:
 
 Following reciprocal coordinates:
            Coordinates               Weight
  0.125000  0.125000  0.125000      4.000000
  0.375000  0.125000  0.125000      4.000000
  0.125000  0.375000  0.125000      4.000000
  0.375000  0.375000  0.125000      4.000000
  0.125000 -0.375000  0.125000      4.000000
  0.375000 -0.375000  0.125000      4.000000
  0.125000 -0.125000  0.125000      4.000000
  0.375000 -0.125000  0.125000      4.000000
  0.125000  0.125000  0.375000      4.000000
  0.375000  0.125000  0.375000      4.000000
  0.125000  0.375000  0.375000      4.000000
  0.375000  0.375000  0.375000      4.000000
  0.125000 -0.375000  0.375000      4.000000
  0.375000 -0.375000  0.375000      4.000000
  0.125000 -0.125000  0.375000      4.000000
  0.375000 -0.125000  0.375000      4.000000
 
 Following cartesian coordinates:
            Coordinates               Weight
  0.010417  0.010417  0.010417      4.000000
  0.031250  0.010417  0.010417      4.000000
  0.010417  0.031250  0.010417      4.000000
  0.031250  0.031250  0.010417      4.000000
  0.010417 -0.031250  0.010417      4.000000
  0.031250 -0.031250  0.010417      4.000000
  0.010417 -0.010417  0.010417      4.000000
  0.031250 -0.010417  0.010417      4.000000
  0.010417  0.010417  0.031250      4.000000
  0.031250  0.010417  0.031250      4.000000
  0.010417  0.031250  0.031250      4.000000
  0.031250  0.031250  0.031250      4.000000
  0.010417 -0.031250  0.031250      4.000000
  0.031250 -0.031250  0.031250      4.000000
  0.010417 -0.010417  0.031250      4.000000
  0.031250 -0.010417  0.031250      4.000000
 


--------------------------------------------------------------------------------------------------------




 Dimension of arrays:
   k-points           NKPTS =     16   k-points in BZ     NKDIM =     16   number of bands    NBANDS=     32
   number of dos      NEDOS =    301   number of ions     NIONS =      3
   non local maximal  LDIM  =      6   non local SUM 2l+1 LMDIM =     18
   total plane-waves  NPLWV = 125000
   max r-space proj   IRMAX =      1   max aug-charges    IRDMAX=   3263
   dimension x,y,z NGX =    50 NGY =   50 NGZ =   50
   dimension x,y,z NGXF=   100 NGYF=  100 NGZF=  100
   support grid    NGXF=   100 NGYF=  100 NGZF=  100
   ions per type =               1   2
   NGX,Y,Z   is equivalent  to a cutoff of   6.93,  6.93,  6.93 a.u.
   NGXF,Y,Z  is equivalent  to a cutoff of  13.85, 13.85, 13.85 a.u.

 SYSTEM =  Te                                      
 POSCAR =  O dimer in a box                        

 Startparameter for this run:
   NWRITE =      2    write-flag & timer
   PREC   = normal    normal or accurate (medium, high low for compatibility)
   ISTART =      0    job   : 0-new  1-cont  2-samecut
   ICHARG =      2    charge: 1-file 2-atom 10-const
   ISPIN  =      2    spin polarized calculation?
   LNONCOLLINEAR =      F non collinear calculations
   LSORBIT =      F    spin-orbit coupling
   INIWAV =      1    electr: 0-lowe 1-rand  2-diag
   LASPH  =      F    aspherical Exc in radial PAW
   METAGGA=      F    non-selfconsistent MetaGGA calc.

 Electronic Relaxation 1
   ENCUT  =  293.2 eV  21.55 Ry    4.64 a.u.  16.76 16.76 16.76*2*pi/ulx,y,z
   ENINI  =  293.2     initial cutoff
   ENAUG  =  455.7 eV  augmentation charge cutoff
   NELM   =     60;   NELMIN=  2; NELMDL= -5     # of ELM steps 
   EDIFF  = 0.1E-03   stopping-criterion for ELM
   LREAL  =      F    real-space projection
   NLSPLINE    = F    spline interpolate recip. space projectors
   LCOMPAT=      F    compatible to vasp.4.4
   GGA_COMPAT  = T    GGA compatible to vasp.4.4-vasp.4.6
   LMAXPAW     = -100 max onsite density
   LMAXMIX     =    2 max onsite mixed and CHGCAR
   VOSKOWN=      0    Vosko Wilk Nusair interpolation
   ROPT   =    0.00000   0.00000
 Ionic relaxation
   EDIFFG = 0.1E-02   stopping-criterion for IOM
   NSW    =    100    number of steps for IOM
   NBLOCK =      1;   KBLOCK =    100    inner block; outer block 
   IBRION =      2    ionic relax: 0-MD 1-quasi-New 2-CG
   NFREE  =      1    steps in history (QN), initial steepest desc. (CG)
   ISIF   =      2    stress and relaxation
   IWAVPR =     11    prediction:  0-non 1-charg 2-wave 3-comb
   ISYM   =      2    0-nonsym 1-usesym 2-fastsym
   LCORR  =      T    Harris-Foulkes like correction to forces

   POTIM  = 0.5000    time-step for ionic-motion
   TEIN   =    0.0    initial temperature
   TEBEG  =    0.0;   TEEND  =   0.0 temperature during run
   SMASS  =  -3.00    Nose mass-parameter (am)
   estimated Nose-frequenzy (Omega)   =  0.10E-29 period in steps =****** mass=  -0.329E-26a.u.
   SCALEE = 1.0000    scale energy and forces
   NPACO  =    256;   APACO  = 16.0  distance and # of slots for P.C.
   PSTRESS=    0.0 pullay stress

  Mass of Ions in am
   POMASS =  92.91 35.45
  Ionic Valenz
   ZVAL   =  13.00  7.00
  Atomic Wigner-Seitz radii
   RWIGS  =  -1.00 -1.00
  virtual crystal weights 
   VCA    =   1.00  1.00
   NELECT =      27.0000    total number of electrons
   NUPDOWN=      -1.0000    fix difference up-down

 DOS related values:
   EMIN   =  10.00;   EMAX   =-10.00  energy-range for DOS
   EFERMI =   0.00
   ISMEAR =     0;   SIGMA  =   0.20  broadening in eV -4-tet -1-fermi 0-gaus

 Electronic relaxation 2 (details)
   IALGO  =     38    algorithm
   LDIAG  =      T    sub-space diagonalisation (order eigenvalues)
   LSUBROT=      F    optimize rotation matrix (better conditioning)
   TURBO    =      0    0=normal 1=particle mesh
   IRESTART =      0    0=no restart 2=restart with 2 vectors
   NREBOOT  =      0    no. of reboots
   NMIN     =      0    reboot dimension
   EREF     =   0.00    reference energy to select bands
   IMIX   =      4    mixing-type and parameters
     AMIX     =   0.40;   BMIX     =  1.00
     AMIX_MAG =   1.60;   BMIX_MAG =  1.00
     AMIN     =   0.10
     WC   =   100.;   INIMIX=   1;  MIXPRE=   1;  MAXMIX= -45

 Intra band minimization:
   WEIMIN = 0.0010     energy-eigenvalue tresh-hold
   EBREAK =  0.78E-06  absolut break condition
   DEPER  =   0.30     relativ break condition  

   TIME   =   0.40     timestep for ELM

  volume/ion in A,a.u.               =     576.00      3887.04
  Fermi-wavevector in a.u.,A,eV,Ry     =   0.409275  0.773417  2.279054  0.167506
  Thomas-Fermi vector in A             =   1.364147
 
 Write flags
   LWAVE        =      T    write WAVECAR
   LDOWNSAMPLE  =      F    k-point downsampling of WAVECAR
   LCHARG       =      T    write CHGCAR
   LVTOT        =      F    write LOCPOT, total local potential
   LVHAR        =      F    write LOCPOT, Hartree potential only
   LELF         =      F    write electronic localiz. function (ELF)
   LORBIT       =      0    0 simple, 1 ext, 2 COOP (PROOUT), +10 PAW based schemes


 Dipole corrections
   LMONO  =      F    monopole corrections only (constant potential shift)
   LDIPOL =      F    correct potential (dipole corrections)
   IDIPOL =      0    1-x, 2-y, 3-z, 4-all directions 
   EPSILON=  1.0000000 bulk dielectric constant

 Exchange correlation treatment:
   GGA     =    --    GGA type
   LEXCH   =     8    internal setting for exchange type
   VOSKOWN=      0    Vosko Wilk Nusair interpolation
   LHFCALC =     F    Hartree Fock is set to
   LHFONE  =     F    Hartree Fock one center treatment
   AEXX    =    0.0000 exact exchange contribution

 Linear response parameters
   LEPSILON=     F    determine dielectric tensor
   LRPA    =     F    only Hartree local field effects (RPA)
   LNABLA  =     F    use nabla operator in PAW spheres
   LVEL    =     F    velocity operator in full k-point grid
   LINTERFAST=   F  fast interpolation
   KINTER  =     0    interpolate to denser k-point grid
   CSHIFT  =0.1000    complex shift for real part using Kramers Kronig
   OMEGAMAX=  -1.0    maximum frequency
   DEG_THRESHOLD= 0.2000000E-02 threshold for treating states as degnerate
   RTIME   =   -0.100 relaxation time in fs
  (WPLASMAI=    0.000 imaginary part of plasma frequency in eV, 0.658/RTIME)
   DFIELD  = 0.0000000 0.0000000 0.0000000 field for delta impulse in time
 
 Orbital magnetization related:
   ORBITALMAG=     F  switch on orbital magnetization
   LCHIMAG   =     F  perturbation theory with respect to B field
   DQ        =  0.001000  dq finite difference perturbation B field
   LLRAUG    =     F  two centre corrections for induced B field



--------------------------------------------------------------------------------------------------------


 conjugate gradient relaxation of ions
   using selective dynamics as specified on POSCAR
 charge density and potential will be updated during run
 spin polarized calculation
 Variant of blocked Davidson
 Davidson routine will perform the subspace rotation
 perform sub-space diagonalisation
    after iterative eigenvector-optimisation
 modified Broyden-mixing scheme, WC =      100.0
 initial mixing is a Kerker type mixing with AMIX =  0.4000 and BMIX =      1.0000
 Hartree-type preconditioning will be used
 using additional bands           18
 reciprocal scheme for non local part
 use partial core corrections
 calculate Harris-corrections to forces 
   (improved forces if not selfconsistent)
 use gradient corrections 
 use of overlap-Matrix (Vanderbilt PP)
 Gauss-broadening in eV      SIGMA  =   0.20


--------------------------------------------------------------------------------------------------------


  energy-cutoff  :      293.24
  volume of cell :     1728.00
      direct lattice vectors                 reciprocal lattice vectors
    12.000000000  0.000000000  0.000000000     0.083333333  0.000000000  0.000000000
     0.000000000 12.000000000  0.000000000     0.000000000  0.083333333  0.000000000
     0.000000000  0.000000000 12.000000000     0.000000000  0.000000000  0.083333333

  length of vectors
    12.000000000 12.000000000 12.000000000     0.083333333  0.083333333  0.083333333


 
 k-points in units of 2pi/SCALE and weight: Gamma-point only                        
   0.01041667  0.01041667  0.01041667       0.062
   0.03125000  0.01041667  0.01041667       0.062
   0.01041667  0.03125000  0.01041667       0.062
   0.03125000  0.03125000  0.01041667       0.062
   0.01041667 -0.03125000  0.01041667       0.062
   0.03125000 -0.03125000  0.01041667       0.062
   0.01041667 -0.01041667  0.01041667       0.062
   0.03125000 -0.01041667  0.01041667       0.062
   0.01041667  0.01041667  0.03125000       0.062
   0.03125000  0.01041667  0.03125000       0.062
   0.01041667  0.03125000  0.03125000       0.062
   0.03125000  0.03125000  0.03125000       0.062
   0.01041667 -0.03125000  0.03125000       0.062
   0.03125000 -0.03125000  0.03125000       0.062
   0.01041667 -0.01041667  0.03125000       0.062
   0.03125000 -0.01041667  0.03125000       0.062
 
 k-points in reciprocal lattice and weights: Gamma-point only                        
   0.12500000  0.12500000  0.12500000       0.062
   0.37500000  0.12500000  0.12500000       0.062
   0.12500000  0.37500000  0.12500000       0.062
   0.37500000  0.37500000  0.12500000       0.062
   0.12500000 -0.37500000  0.12500000       0.062
   0.37500000 -0.37500000  0.12500000       0.062
   0.12500000 -0.12500000  0.12500000       0.062
   0.37500000 -0.12500000  0.12500000       0.062
   0.12500000  0.12500000  0.37500000       0.062
   0.37500000  0.12500000  0.37500000       0.062
   0.12500000  0.37500000  0.37500000       0.062
   0.37500000  0.37500000  0.37500000       0.062
   0.12500000 -0.37500000  0.37500000       0.062
   0.37500000 -0.37500000  0.37500000       0.062
   0.12500000 -0.12500000  0.37500000       0.062
   0.37500000 -0.12500000  0.37500000       0.062
 
 position of ions in fractional coordinates (direct lattice) 
   0.00000000  0.02630959  0.03633177
   0.00000000  0.97371248  0.22368664
   0.00000000  0.21215715  0.97391903
 
 position of ions in cartesian coordinates  (Angst):
   0.00000000  0.31571506  0.43598123
   0.00000000 11.68454971  2.68423962
   0.00000000  2.54588577 11.68702836
 


--------------------------------------------------------------------------------------------------------


 k-point  1 :   0.1250 0.1250 0.1250  plane waves:   19717
 k-point  2 :   0.3750 0.1250 0.1250  plane waves:   19713
 k-point  3 :   0.1250 0.3750 0.1250  plane waves:   19713
 k-point  4 :   0.3750 0.3750 0.1250  plane waves:   19693
 k-point  5 :   0.1250-0.3750 0.1250  plane waves:   19713
 k-point  6 :   0.3750-0.3750 0.1250  plane waves:   19693
 k-point  7 :   0.1250-0.1250 0.1250  plane waves:   19717
 k-point  8 :   0.3750-0.1250 0.1250  plane waves:   19713
 k-point  9 :   0.1250 0.1250 0.3750  plane waves:   19713
 k-point 10 :   0.3750 0.1250 0.3750  plane waves:   19693
 k-point 11 :   0.1250 0.3750 0.3750  plane waves:   19693
 k-point 12 :   0.3750 0.3750 0.3750  plane waves:   19730
 k-point 13 :   0.1250-0.3750 0.3750  plane waves:   19693
 k-point 14 :   0.3750-0.3750 0.3750  plane waves:   19730
 k-point 15 :   0.1250-0.1250 0.3750  plane waves:   19713
 k-point 16 :   0.3750-0.1250 0.3750  plane waves:   19693

 maximum and minimum number of plane-waves per node :     19730    19693

 maximum number of plane-waves:     19730
 maximum index in each direction: 
   IXMAX=   16   IYMAX=   17   IZMAX=   16
   IXMIN=  -17   IYMIN=  -17   IZMIN=  -17


 serial   3D FFT for wavefunctions
 parallel 3D FFT for charge:
    minimum data exchange during FFTs selected (reduces bandwidth)


 total amount of memory used by VASP MPI-rank0   160921. kBytes
=======================================================================

   base      :      30000. kBytes
   nonl-proj :      91928. kBytes
   fftplans  :       2864. kBytes
   grid      :      15769. kBytes
   one-center:         93. kBytes
   wavefun   :      20267. kBytes
 
     INWAV:  cpu time    0.0001: real time    0.0002
 Broyden mixing: mesh for mixing (old mesh)
   NGX = 33   NGY = 33   NGZ = 33
  (NGX  =100   NGY  =100   NGZ  =100)
  gives a total of  35937 points

 initial charge density was supplied:
 charge density of overlapping atoms calculated
 number of electron      27.0000000 magnetization       3.0000000
 keeping initial charge density in first step


--------------------------------------------------------------------------------------------------------


 Maximum index for augmentation-charges          452 (set IRDMAX)


--------------------------------------------------------------------------------------------------------


 First call to EWALD:  gamma=   0.148
 Maximum number of real-space cells 3x 3x 3
 Maximum number of reciprocal cells 3x 3x 3

    FEWALD:  cpu time    0.0019: real time    0.0019


--------------------------------------- Iteration      1(   1)  ---------------------------------------


    POTLOK:  cpu time    0.0684: real time    0.0712
    SETDIJ:  cpu time    0.0037: real time    0.0038
     EDDAV:  cpu time    2.0100: real time    2.0621
       DOS:  cpu time    0.0019: real time    0.0019
    --------------------------------------------
      LOOP:  cpu time    2.0841: real time    2.1390

 eigenvalue-minimisations  :  3072
 total energy-change (2. order) : 0.9387764E+02  (-0.7186550E+03)
 number of electron      27.0000000 magnetization       3.0000000
 augmentation part       27.0000000 magnetization       3.0000000

 Free energy of the ion-electron system (eV)
  ---------------------------------------------------
  alpha Z        PSCENC =         2.73438456
  Ewald energy   TEWEN  =        79.42889605
  -Hartree energ DENC   =     -2055.00772119
  -exchange      EXHF   =         0.00000000
  -V(xc)+E(xc)   XCENC  =        94.21895016
  PAW double counting   =      1630.58245668    -1611.73592214
  entropy T*S    EENTRO =        -0.09417477
  eigenvalues    EBANDS =      -420.78713304
  atomic energy  EATOM  =      2374.53790806
  Solvation  Ediel_sol  =         0.00000000
  ---------------------------------------------------
  free energy    TOTEN  =        93.87764438 eV

  energy without entropy =       93.97181915  energy(sigma->0) =       93.92473176


--------------------------------------------------------------------------------------------------------




--------------------------------------- Iteration      1(   2)  ---------------------------------------


     EDDAV:  cpu time    2.0556: real time    2.0657
       DOS:  cpu time    0.0005: real time    0.0005
    --------------------------------------------
      LOOP:  cpu time    2.0562: real time    2.0662

 eigenvalue-minimisations  :  3248
 total energy-change (2. order) :-0.9680782E+02  (-0.9527199E+02)
 number of electron      27.0000000 magnetization       3.0000000
 augmentation part       27.0000000 magnetization       3.0000000

 Free energy of the ion-electron system (eV)
  ---------------------------------------------------
  alpha Z        PSCENC =         2.73438456
  Ewald energy   TEWEN  =        79.42889605
  -Hartree energ DENC   =     -2055.00772119
  -exchange      EXHF   =         0.00000000
  -V(xc)+E(xc)   XCENC  =        94.21895016
  PAW double counting   =      1630.58245668    -1611.73592214
  entropy T*S    EENTRO =        -0.04584468
  eigenvalues    EBANDS =      -517.64328091
  atomic energy  EATOM  =      2374.53790806
  Solvation  Ediel_sol  =         0.00000000
  ---------------------------------------------------
  free energy    TOTEN  =        -2.93017341 eV

  energy without entropy =       -2.88432873  energy(sigma->0) =       -2.90725107


--------------------------------------------------------------------------------------------------------




--------------------------------------- Iteration      1(   3)  ---------------------------------------


     EDDAV:  cpu time    2.2519: real time    2.2621
       DOS:  cpu time    0.0006: real time    0.0006
    --------------------------------------------
      LOOP:  cpu time    2.2525: real time    2.2627

 eigenvalue-minimisations  :  3568
 total energy-change (2. order) :-0.9938546E+01  (-0.9550419E+01)
 number of electron      27.0000000 magnetization       3.0000000
 augmentation part       27.0000000 magnetization       3.0000000

 Free energy of the ion-electron system (eV)
  ---------------------------------------------------
  alpha Z        PSCENC =         2.73438456
  Ewald energy   TEWEN  =        79.42889605
  -Hartree energ DENC   =     -2055.00772119
  -exchange      EXHF   =         0.00000000
  -V(xc)+E(xc)   XCENC  =        94.21895016
  PAW double counting   =      1630.58245668    -1611.73592214
  entropy T*S    EENTRO =        -0.14005524
  eigenvalues    EBANDS =      -527.48761628
  atomic energy  EATOM  =      2374.53790806
  Solvation  Ediel_sol  =         0.00000000
  ---------------------------------------------------
  free energy    TOTEN  =       -12.86871933 eV

  energy without entropy =      -12.72866409  energy(sigma->0) =      -12.79869171


--------------------------------------------------------------------------------------------------------




--------------------------------------- Iteration      1(   4)  ---------------------------------------


     EDDAV:  cpu time    1.6246: real time    1.6314
       DOS:  cpu time    0.0006: real time    0.0006
    --------------------------------------------
      LOOP:  cpu time    1.6252: real time    1.6320

 eigenvalue-minimisations  :  2448
 total energy-change (2. order) :-0.6229904E+00  (-0.5744201E+00)
 number of electron      27.0000000 magnetization       3.0000000
 augmentation part       27.0000000 magnetization       3.0000000

 Free energy of the ion-electron system (eV)
  ---------------------------------------------------
  alpha Z        PSCENC =         2.73438456
  Ewald energy   TEWEN  =        79.42889605
  -Hartree energ DENC   =     -2055.00772119
  -exchange      EXHF   =         0.00000000
  -V(xc)+E(xc)   XCENC  =        94.21895016
  PAW double counting   =      1630.58245668    -1611.73592214
  entropy T*S    EENTRO =        -0.20922709
  eigenvalues    EBANDS =      -528.04143484
  atomic energy  EATOM  =      2374.53790806
  Solvation  Ediel_sol  =         0.00000000
  ---------------------------------------------------
  free energy    TOTEN  =       -13.49170975 eV

  energy without entropy =      -13.28248265  energy(sigma->0) =      -13.38709620


--------------------------------------------------------------------------------------------------------




--------------------------------------- Iteration      1(   5)  ---------------------------------------


     EDDAV:  cpu time    2.1392: real time    2.1507
       DOS:  cpu time    0.0005: real time    0.0005
    CHARGE:  cpu time    0.1202: real time    0.1219
    MIXING:  cpu time    0.0018: real time    0.0018
    --------------------------------------------
      LOOP:  cpu time    2.2617: real time    2.2749

 eigenvalue-minimisations  :  3408
 total energy-change (2. order) :-0.3429070E-01  (-0.3376065E-01)
 number of electron      27.0000013 magnetization       2.5139061
 augmentation part       -0.7766994 magnetization       1.0306115

 Broyden mixing:
  rms(total) = 0.77136E+00    rms(broyden)= 0.76938E+00
  rms(prec ) = 0.97171E+00
  weight for this iteration     100.00

 Free energy of the ion-electron system (eV)
  ---------------------------------------------------
  alpha Z        PSCENC =         2.73438456
  Ewald energy   TEWEN  =        79.42889605
  -Hartree energ DENC   =     -2055.00772119
  -exchange      EXHF   =         0.00000000
  -V(xc)+E(xc)   XCENC  =        94.21895016
  PAW double counting   =      1630.58245668    -1611.73592214
  entropy T*S    EENTRO =        -0.21257583
  eigenvalues    EBANDS =      -528.07237680
  atomic energy  EATOM  =      2374.53790806
  Solvation  Ediel_sol  =         0.00000000
  ---------------------------------------------------
  free energy    TOTEN  =       -13.52600044 eV

  energy without entropy =      -13.31342461  energy(sigma->0) =      -13.41971253


--------------------------------------------------------------------------------------------------------




--------------------------------------- Iteration      1(   6)  ---------------------------------------


    POTLOK:  cpu time    0.0593: real time    0.0597
    SETDIJ:  cpu time    0.0033: real time    0.0033
     EDDAV:  cpu time    1.8169: real time    1.8254
       DOS:  cpu time    0.0006: real time    0.0006
    CHARGE:  cpu time    0.0938: real time    0.0952
    MIXING:  cpu time    0.0017: real time    0.0058
    --------------------------------------------
      LOOP:  cpu time    1.9756: real time    1.9899

 eigenvalue-minimisations  :  2848
 total energy-change (2. order) : 0.2092037E+01  (-0.8498128E+00)
 number of electron      27.0000016 magnetization       2.6342938
 augmentation part       -0.4673962 magnetization      -0.2103859

 Broyden mixing:
  rms(total) = 0.54807E+00    rms(broyden)= 0.54589E+00
  rms(prec ) = 0.59137E+00
  weight for this iteration     100.00

 eigenvalues of (default mixing * dielectric matrix)
  average eigenvalue GAMMA=   0.5877
  0.5877

 Free energy of the ion-electron system (eV)
  ---------------------------------------------------
  alpha Z        PSCENC =         2.73438456
  Ewald energy   TEWEN  =        79.42889605
  -Hartree energ DENC   =     -2042.15968730
  -exchange      EXHF   =         0.00000000
  -V(xc)+E(xc)   XCENC  =        95.47311299
  PAW double counting   =      1646.39867714    -1627.92371909
  entropy T*S    EENTRO =        -0.06141293
  eigenvalues    EBANDS =      -539.86212287
  atomic energy  EATOM  =      2374.53790806
  Solvation  Ediel_sol  =         0.00000000
  ---------------------------------------------------
  free energy    TOTEN  =       -11.43396338 eV

  energy without entropy =      -11.37255045  energy(sigma->0) =      -11.40325692


--------------------------------------------------------------------------------------------------------




--------------------------------------- Iteration      1(   7)  ---------------------------------------


    POTLOK:  cpu time    0.0588: real time    0.0591
    SETDIJ:  cpu time    0.0031: real time    0.0031
     EDDAV:  cpu time    1.7294: real time    1.7377
       DOS:  cpu time    0.0005: real time    0.0005
    CHARGE:  cpu time    0.0948: real time    0.0955
    MIXING:  cpu time    0.0015: real time    0.0025
    --------------------------------------------
      LOOP:  cpu time    1.8881: real time    1.8984

 eigenvalue-minimisations  :  2672
 total energy-change (2. order) :-0.9214627E+00  (-0.1009789E+00)
 number of electron      27.0000015 magnetization       2.7707671
 augmentation part       -0.5205673 magnetization      -0.0875302

 Broyden mixing:
  rms(total) = 0.25004E+00    rms(broyden)= 0.24941E+00
  rms(prec ) = 0.29199E+00
  weight for this iteration     100.00

 eigenvalues of (default mixing * dielectric matrix)
  average eigenvalue GAMMA=   0.8834
  0.8834  0.8834

 Free energy of the ion-electron system (eV)
  ---------------------------------------------------
  alpha Z        PSCENC =         2.73438456
  Ewald energy   TEWEN  =        79.42889605
  -Hartree energ DENC   =     -2050.14770087
  -exchange      EXHF   =         0.00000000
  -V(xc)+E(xc)   XCENC  =        95.45037842
  PAW double counting   =      1674.61740724    -1655.97631999
  entropy T*S    EENTRO =        -0.01767859
  eigenvalues    EBANDS =      -532.98270099
  atomic energy  EATOM  =      2374.53790806
  Solvation  Ediel_sol  =         0.00000000
  ---------------------------------------------------
  free energy    TOTEN  =       -12.35542610 eV

  energy without entropy =      -12.33774751  energy(sigma->0) =      -12.34658680


--------------------------------------------------------------------------------------------------------




--------------------------------------- Iteration      1(   8)  ---------------------------------------


    POTLOK:  cpu time    0.0588: real time    0.0591
    SETDIJ:  cpu time    0.0033: real time    0.0033
     EDDAV:  cpu time    1.8797: real time    1.8888
       DOS:  cpu time    0.0005: real time    0.0005
    CHARGE:  cpu time    0.0960: real time    0.0974
    MIXING:  cpu time    0.0015: real time    0.0015
    --------------------------------------------
      LOOP:  cpu time    2.0396: real time    2.0505

 eigenvalue-minimisations  :  2960
 total energy-change (2. order) :-0.3196977E+00  (-0.4571207E-01)
 number of electron      27.0000015 magnetization       2.9002171
 augmentation part       -0.5410713 magnetization       0.0212438

 Broyden mixing:
  rms(total) = 0.14150E+00    rms(broyden)= 0.14144E+00
  rms(prec ) = 0.16384E+00
  weight for this iteration     100.00

 eigenvalues of (default mixing * dielectric matrix)
  average eigenvalue GAMMA=   0.9697
  0.8164  0.9353  1.1574

 Free energy of the ion-electron system (eV)
  ---------------------------------------------------
  alpha Z        PSCENC =         2.73438456
  Ewald energy   TEWEN  =        79.42889605
  -Hartree energ DENC   =     -2056.73861665
  -exchange      EXHF   =         0.00000000
  -V(xc)+E(xc)   XCENC  =        95.67223187
  PAW double counting   =      1710.12518636    -1691.23037759
  entropy T*S    EENTRO =        -0.01350052
  eigenvalues    EBANDS =      -527.19123590
  atomic energy  EATOM  =      2374.53790806
  Solvation  Ediel_sol  =         0.00000000
  ---------------------------------------------------
  free energy    TOTEN  =       -12.67512376 eV

  energy without entropy =      -12.66162323  energy(sigma->0) =      -12.66837349


--------------------------------------------------------------------------------------------------------




--------------------------------------- Iteration      1(   9)  ---------------------------------------


    POTLOK:  cpu time    0.0588: real time    0.0591
    SETDIJ:  cpu time    0.0032: real time    0.0032
     EDDAV:  cpu time    1.7375: real time    1.7449
       DOS:  cpu time    0.0006: real time    0.0006
    CHARGE:  cpu time    0.0936: real time    0.0942
    MIXING:  cpu time    0.0016: real time    0.0018
    --------------------------------------------
      LOOP:  cpu time    1.8953: real time    1.9039

 eigenvalue-minimisations  :  2672
 total energy-change (2. order) :-0.3243775E+00  (-0.2612274E-01)
 number of electron      27.0000015 magnetization       2.9480399
 augmentation part       -0.5429238 magnetization       0.0575286

 Broyden mixing:
  rms(total) = 0.67881E-01    rms(broyden)= 0.67768E-01
  rms(prec ) = 0.76624E-01
  weight for this iteration     100.00

 eigenvalues of (default mixing * dielectric matrix)
  average eigenvalue GAMMA=   1.0617
  1.7489  0.9207  0.9207  0.6566

 Free energy of the ion-electron system (eV)
  ---------------------------------------------------
  alpha Z        PSCENC =         2.73438456
  Ewald energy   TEWEN  =        79.42889605
  -Hartree energ DENC   =     -2060.13783323
  -exchange      EXHF   =         0.00000000
  -V(xc)+E(xc)   XCENC  =        95.63211710
  PAW double counting   =      1747.49798813    -1728.50625141
  entropy T*S    EENTRO =        -0.02383748
  eigenvalues    EBANDS =      -524.16287302
  atomic energy  EATOM  =      2374.53790806
  Solvation  Ediel_sol  =         0.00000000
  ---------------------------------------------------
  free energy    TOTEN  =       -12.99950122 eV

  energy without entropy =      -12.97566375  energy(sigma->0) =      -12.98758248


--------------------------------------------------------------------------------------------------------




--------------------------------------- Iteration      1(  10)  ---------------------------------------


    POTLOK:  cpu time    0.0590: real time    0.0595
    SETDIJ:  cpu time    0.0032: real time    0.0032
     EDDAV:  cpu time    2.1112: real time    2.1197
       DOS:  cpu time    0.0005: real time    0.0005
    CHARGE:  cpu time    0.0936: real time    0.0949
    MIXING:  cpu time    0.0016: real time    0.0016
    --------------------------------------------
      LOOP:  cpu time    2.2691: real time    2.2793

 eigenvalue-minimisations  :  3392
 total energy-change (2. order) :-0.1957422E+00  (-0.5691930E-02)
 number of electron      27.0000015 magnetization       2.9719351
 augmentation part       -0.5397622 magnetization       0.0776457

 Broyden mixing:
  rms(total) = 0.31878E-01    rms(broyden)= 0.31814E-01
  rms(prec ) = 0.39326E-01
  weight for this iteration     100.00

 eigenvalues of (default mixing * dielectric matrix)
  average eigenvalue GAMMA=   1.1400
  2.1495  1.0823  1.0823  0.7481  0.6376

 Free energy of the ion-electron system (eV)
  ---------------------------------------------------
  alpha Z        PSCENC =         2.73438456
  Ewald energy   TEWEN  =        79.42889605
  -Hartree energ DENC   =     -2060.08814055
  -exchange      EXHF   =         0.00000000
  -V(xc)+E(xc)   XCENC  =        95.48671077
  PAW double counting   =      1758.80842049    -1739.81830495
  entropy T*S    EENTRO =        -0.02705850
  eigenvalues    EBANDS =      -524.25805939
  atomic energy  EATOM  =      2374.53790806
  Solvation  Ediel_sol  =         0.00000000
  ---------------------------------------------------
  free energy    TOTEN  =       -13.19524346 eV

  energy without entropy =      -13.16818495  energy(sigma->0) =      -13.18171420


--------------------------------------------------------------------------------------------------------




--------------------------------------- Iteration      1(  11)  ---------------------------------------


    POTLOK:  cpu time    0.0581: real time    0.0584
    SETDIJ:  cpu time    0.0032: real time    0.0032
     EDDAV:  cpu time    1.7654: real time    1.7725
       DOS:  cpu time    0.0005: real time    0.0005
    CHARGE:  cpu time    0.0913: real time    0.0919
    MIXING:  cpu time    0.0018: real time    0.0018
    --------------------------------------------
      LOOP:  cpu time    1.9202: real time    1.9283

 eigenvalue-minimisations  :  2736
 total energy-change (2. order) :-0.1466104E+00  (-0.3649298E-02)
 number of electron      27.0000015 magnetization       2.9918804
 augmentation part       -0.5401350 magnetization       0.0977601

 Broyden mixing:
  rms(total) = 0.13745E-01    rms(broyden)= 0.13726E-01
  rms(prec ) = 0.19885E-01
  weight for this iteration     100.00

 eigenvalues of (default mixing * dielectric matrix)
  average eigenvalue GAMMA=   1.1952
  2.0597  1.7491  0.9984  0.9984  0.7434  0.6225

 Free energy of the ion-electron system (eV)
  ---------------------------------------------------
  alpha Z        PSCENC =         2.73438456
  Ewald energy   TEWEN  =        79.42889605
  -Hartree energ DENC   =     -2059.38562560
  -exchange      EXHF   =         0.00000000
  -V(xc)+E(xc)   XCENC  =        95.34358525
  PAW double counting   =      1760.45171403    -1741.48061601
  entropy T*S    EENTRO =        -0.02628901
  eigenvalues    EBANDS =      -524.94581117
  atomic energy  EATOM  =      2374.53790806
  Solvation  Ediel_sol  =         0.00000000
  ---------------------------------------------------
  free energy    TOTEN  =       -13.34185383 eV

  energy without entropy =      -13.31556483  energy(sigma->0) =      -13.32870933


--------------------------------------------------------------------------------------------------------




--------------------------------------- Iteration      1(  12)  ---------------------------------------


    POTLOK:  cpu time    0.0586: real time    0.0590
    SETDIJ:  cpu time    0.0031: real time    0.0031
     EDDAV:  cpu time    1.6615: real time    1.6675
       DOS:  cpu time    0.0005: real time    0.0005
    CHARGE:  cpu time    0.0945: real time    0.0956
    MIXING:  cpu time    0.0017: real time    0.0017
    --------------------------------------------
      LOOP:  cpu time    1.8200: real time    1.8275

 eigenvalue-minimisations  :  2560
 total energy-change (2. order) :-0.8082362E-01  (-0.1919796E-02)
 number of electron      27.0000015 magnetization       2.9973651
 augmentation part       -0.5399171 magnetization       0.1054471

 Broyden mixing:
  rms(total) = 0.63859E-02    rms(broyden)= 0.63810E-02
  rms(prec ) = 0.10717E-01
  weight for this iteration     100.00

 eigenvalues of (default mixing * dielectric matrix)
  average eigenvalue GAMMA=   1.2026
  2.0611  2.0611  1.0808  1.0808  0.7585  0.7585  0.6177

 Free energy of the ion-electron system (eV)
  ---------------------------------------------------
  alpha Z        PSCENC =         2.73438456
  Ewald energy   TEWEN  =        79.42889605
  -Hartree energ DENC   =     -2058.87639536
  -exchange      EXHF   =         0.00000000
  -V(xc)+E(xc)   XCENC  =        95.25903851
  PAW double counting   =      1760.53640827    -1741.56149468
  entropy T*S    EENTRO =        -0.02534615
  eigenvalues    EBANDS =      -525.45607673
  atomic energy  EATOM  =      2374.53790806
  Solvation  Ediel_sol  =         0.00000000
  ---------------------------------------------------
  free energy    TOTEN  =       -13.42267746 eV

  energy without entropy =      -13.39733131  energy(sigma->0) =      -13.41000438


--------------------------------------------------------------------------------------------------------




--------------------------------------- Iteration      1(  13)  ---------------------------------------


    POTLOK:  cpu time    0.0586: real time    0.0589
    SETDIJ:  cpu time    0.0031: real time    0.0031
     EDDAV:  cpu time    1.7856: real time    1.7926
       DOS:  cpu time    0.0005: real time    0.0005
    CHARGE:  cpu time    0.0926: real time    0.0934
    MIXING:  cpu time    0.0019: real time    0.0019
    --------------------------------------------
      LOOP:  cpu time    1.9422: real time    1.9504

 eigenvalue-minimisations  :  2784
 total energy-change (2. order) :-0.2645111E-01  (-0.6485895E-03)
 number of electron      27.0000015 magnetization       3.0006926
 augmentation part       -0.5408928 magnetization       0.1096739

 Broyden mixing:
  rms(total) = 0.36501E-02    rms(broyden)= 0.36420E-02
  rms(prec ) = 0.74906E-02
  weight for this iteration     100.00

 eigenvalues of (default mixing * dielectric matrix)
  average eigenvalue GAMMA=   1.2384
  2.2082  2.2082  1.2399  1.2399  0.8756  0.6250  0.7554  0.7554

 Free energy of the ion-electron system (eV)
  ---------------------------------------------------
  alpha Z        PSCENC =         2.73438456
  Ewald energy   TEWEN  =        79.42889605
  -Hartree energ DENC   =     -2058.91817769
  -exchange      EXHF   =         0.00000000
  -V(xc)+E(xc)   XCENC  =        95.24093882
  PAW double counting   =      1759.86965601    -1740.88133319
  entropy T*S    EENTRO =        -0.02599976
  eigenvalues    EBANDS =      -525.43540143
  atomic energy  EATOM  =      2374.53790806
  Solvation  Ediel_sol  =         0.00000000
  ---------------------------------------------------
  free energy    TOTEN  =       -13.44912856 eV

  energy without entropy =      -13.42312881  energy(sigma->0) =      -13.43612869


--------------------------------------------------------------------------------------------------------




--------------------------------------- Iteration      1(  14)  ---------------------------------------


    POTLOK:  cpu time    0.0587: real time    0.0591
    SETDIJ:  cpu time    0.0032: real time    0.0032
     EDDAV:  cpu time    1.5908: real time    1.5969
       DOS:  cpu time    0.0005: real time    0.0005
    CHARGE:  cpu time    0.0917: real time    0.0923
    MIXING:  cpu time    0.0019: real time    0.0019
    --------------------------------------------
      LOOP:  cpu time    1.7466: real time    1.7538

 eigenvalue-minimisations  :  2400
 total energy-change (2. order) :-0.1099949E-01  (-0.4697847E-03)
 number of electron      27.0000015 magnetization       3.0017294
 augmentation part       -0.5417018 magnetization       0.1111279

 Broyden mixing:
  rms(total) = 0.21870E-02    rms(broyden)= 0.21787E-02
  rms(prec ) = 0.50508E-02
  weight for this iteration     100.00

 eigenvalues of (default mixing * dielectric matrix)
  average eigenvalue GAMMA=   1.2717
  2.5230  2.5230  1.2937  1.2937  0.8749  0.8749  0.7878  0.6285  0.6461

 Free energy of the ion-electron system (eV)
  ---------------------------------------------------
  alpha Z        PSCENC =         2.73438456
  Ewald energy   TEWEN  =        79.42889605
  -Hartree energ DENC   =     -2058.95443091
  -exchange      EXHF   =         0.00000000
  -V(xc)+E(xc)   XCENC  =        95.23200039
  PAW double counting   =      1758.97036947    -1739.96832940
  entropy T*S    EENTRO =        -0.02654202
  eigenvalues    EBANDS =      -525.41438427
  atomic energy  EATOM  =      2374.53790806
  Solvation  Ediel_sol  =         0.00000000
  ---------------------------------------------------
  free energy    TOTEN  =       -13.46012806 eV

  energy without entropy =      -13.43358603  energy(sigma->0) =      -13.44685704


--------------------------------------------------------------------------------------------------------




--------------------------------------- Iteration      1(  15)  ---------------------------------------


    POTLOK:  cpu time    0.0584: real time    0.0586
    SETDIJ:  cpu time    0.0031: real time    0.0031
     EDDAV:  cpu time    1.7548: real time    1.7612
       DOS:  cpu time    0.0005: real time    0.0005
    CHARGE:  cpu time    0.0916: real time    0.0925
    MIXING:  cpu time    0.0023: real time    0.0023
    --------------------------------------------
      LOOP:  cpu time    1.9107: real time    1.9183

 eigenvalue-minimisations  :  2720
 total energy-change (2. order) :-0.1572862E-02  (-0.4128656E-04)
 number of electron      27.0000015 magnetization       3.0019963
 augmentation part       -0.5418237 magnetization       0.1114811

 Broyden mixing:
  rms(total) = 0.14407E-02    rms(broyden)= 0.14382E-02
  rms(prec ) = 0.36633E-02
  weight for this iteration     100.00

 eigenvalues of (default mixing * dielectric matrix)
  average eigenvalue GAMMA=   1.3012
  2.9093  2.4583  1.5405  1.1924  1.1924  0.8638  0.8638  0.7284  0.6164  0.6468

 Free energy of the ion-electron system (eV)
  ---------------------------------------------------
  alpha Z        PSCENC =         2.73438456
  Ewald energy   TEWEN  =        79.42889605
  -Hartree energ DENC   =     -2058.95340748
  -exchange      EXHF   =         0.00000000
  -V(xc)+E(xc)   XCENC  =        95.22955875
  PAW double counting   =      1758.68678180    -1739.67707218
  entropy T*S    EENTRO =        -0.02650134
  eigenvalues    EBANDS =      -525.42224915
  atomic energy  EATOM  =      2374.53790806
  Solvation  Ediel_sol  =         0.00000000
  ---------------------------------------------------
  free energy    TOTEN  =       -13.46170092 eV

  energy without entropy =      -13.43519957  energy(sigma->0) =      -13.44845025


--------------------------------------------------------------------------------------------------------




--------------------------------------- Iteration      1(  16)  ---------------------------------------


    POTLOK:  cpu time    0.0584: real time    0.0588
    SETDIJ:  cpu time    0.0031: real time    0.0031
     EDDAV:  cpu time    1.8175: real time    1.8246
       DOS:  cpu time    0.0005: real time    0.0005
    CHARGE:  cpu time    0.0917: real time    0.0923
    MIXING:  cpu time    0.0022: real time    0.0025
    --------------------------------------------
      LOOP:  cpu time    1.9734: real time    1.9817

 eigenvalue-minimisations  :  2848
 total energy-change (2. order) :-0.1144110E-02  (-0.1741151E-04)
 number of electron      27.0000015 magnetization       3.0010257
 augmentation part       -0.5419210 magnetization       0.1105493

 Broyden mixing:
  rms(total) = 0.97416E-03    rms(broyden)= 0.97118E-03
  rms(prec ) = 0.22975E-02
  weight for this iteration     100.00

 eigenvalues of (default mixing * dielectric matrix)
  average eigenvalue GAMMA=   1.3622
  3.4776  2.3477  1.8262  1.2986  1.2262  1.1282  0.8433  0.8433  0.7383  0.6192
  0.6353

 Free energy of the ion-electron system (eV)
  ---------------------------------------------------
  alpha Z        PSCENC =         2.73438456
  Ewald energy   TEWEN  =        79.42889605
  -Hartree energ DENC   =     -2058.98079458
  -exchange      EXHF   =         0.00000000
  -V(xc)+E(xc)   XCENC  =        95.22888370
  PAW double counting   =      1758.83121645    -1739.81311803
  entropy T*S    EENTRO =        -0.02641018
  eigenvalues    EBANDS =      -525.40381106
  atomic energy  EATOM  =      2374.53790806
  Solvation  Ediel_sol  =         0.00000000
  ---------------------------------------------------
  free energy    TOTEN  =       -13.46284503 eV

  energy without entropy =      -13.43643485  energy(sigma->0) =      -13.44963994


--------------------------------------------------------------------------------------------------------




--------------------------------------- Iteration      1(  17)  ---------------------------------------


    POTLOK:  cpu time    0.0585: real time    0.0588
    SETDIJ:  cpu time    0.0031: real time    0.0031
     EDDAV:  cpu time    1.7129: real time    1.7197
       DOS:  cpu time    0.0005: real time    0.0005
    CHARGE:  cpu time    0.0935: real time    0.0941
    MIXING:  cpu time    0.0024: real time    0.0024
    --------------------------------------------
      LOOP:  cpu time    1.8708: real time    1.8786

 eigenvalue-minimisations  :  2592
 total energy-change (2. order) :-0.7046479E-03  (-0.5778875E-05)
 number of electron      27.0000015 magnetization       3.0002163
 augmentation part       -0.5420473 magnetization       0.1096538

 Broyden mixing:
  rms(total) = 0.74161E-03    rms(broyden)= 0.73993E-03
  rms(prec ) = 0.15113E-02
  weight for this iteration     100.00

 eigenvalues of (default mixing * dielectric matrix)
  average eigenvalue GAMMA=   1.3929
  3.8784  2.2296  2.2296  1.4738  1.1594  1.1594  0.8950  0.8950  0.7801  0.7705
  0.6220  0.6220

 Free energy of the ion-electron system (eV)
  ---------------------------------------------------
  alpha Z        PSCENC =         2.73438456
  Ewald energy   TEWEN  =        79.42889605
  -Hartree energ DENC   =     -2058.99859534
  -exchange      EXHF   =         0.00000000
  -V(xc)+E(xc)   XCENC  =        95.22761131
  PAW double counting   =      1758.93512657    -1739.91388057
  entropy T*S    EENTRO =        -0.02641542
  eigenvalues    EBANDS =      -525.38858490
  atomic energy  EATOM  =      2374.53790806
  Solvation  Ediel_sol  =         0.00000000
  ---------------------------------------------------
  free energy    TOTEN  =       -13.46354968 eV

  energy without entropy =      -13.43713425  energy(sigma->0) =      -13.45034197


--------------------------------------------------------------------------------------------------------




--------------------------------------- Iteration      1(  18)  ---------------------------------------


    POTLOK:  cpu time    0.0588: real time    0.0591
    SETDIJ:  cpu time    0.0032: real time    0.0032
     EDDAV:  cpu time    1.7736: real time    1.7808
       DOS:  cpu time    0.0005: real time    0.0005
    CHARGE:  cpu time    0.0914: real time    0.0920
    MIXING:  cpu time    0.0027: real time    0.0027
    --------------------------------------------
      LOOP:  cpu time    1.9302: real time    1.9383

 eigenvalue-minimisations  :  2720
 total energy-change (2. order) :-0.3366013E-03  (-0.3840109E-05)
 number of electron      27.0000015 magnetization       3.0000095
 augmentation part       -0.5420916 magnetization       0.1093835

 Broyden mixing:
  rms(total) = 0.63738E-03    rms(broyden)= 0.63636E-03
  rms(prec ) = 0.10140E-02
  weight for this iteration     100.00

 eigenvalues of (default mixing * dielectric matrix)
  average eigenvalue GAMMA=   1.3892
  4.2621  2.2960  2.2960  1.5153  1.1798  1.1798  0.9362  0.9362  0.7853  0.7853
  0.6535  0.6172  0.6172

 Free energy of the ion-electron system (eV)
  ---------------------------------------------------
  alpha Z        PSCENC =         2.73438456
  Ewald energy   TEWEN  =        79.42889605
  -Hartree energ DENC   =     -2059.00929530
  -exchange      EXHF   =         0.00000000
  -V(xc)+E(xc)   XCENC  =        95.22720479
  PAW double counting   =      1759.06073731    -1740.03940228
  entropy T*S    EENTRO =        -0.02640261
  eigenvalues    EBANDS =      -525.37791686
  atomic energy  EATOM  =      2374.53790806
  Solvation  Ediel_sol  =         0.00000000
  ---------------------------------------------------
  free energy    TOTEN  =       -13.46388628 eV

  energy without entropy =      -13.43748366  energy(sigma->0) =      -13.45068497


--------------------------------------------------------------------------------------------------------




--------------------------------------- Iteration      1(  19)  ---------------------------------------


    POTLOK:  cpu time    0.0585: real time    0.0588
    SETDIJ:  cpu time    0.0032: real time    0.0032
     EDDAV:  cpu time    1.7912: real time    1.7985
       DOS:  cpu time    0.0005: real time    0.0005
    --------------------------------------------
      LOOP:  cpu time    1.8534: real time    1.8610

 eigenvalue-minimisations  :  2720
 total energy-change (2. order) :-0.9911494E-04  (-0.1185914E-05)
 number of electron      27.0000015 magnetization       3.0000095
 augmentation part       -0.5420916 magnetization       0.1093835

 Free energy of the ion-electron system (eV)
  ---------------------------------------------------
  alpha Z        PSCENC =         2.73438456
  Ewald energy   TEWEN  =        79.42889605
  -Hartree energ DENC   =     -2059.00970694
  -exchange      EXHF   =         0.00000000
  -V(xc)+E(xc)   XCENC  =        95.22687321
  PAW double counting   =      1759.04613164    -1740.02504079
  entropy T*S    EENTRO =        -0.02639932
  eigenvalues    EBANDS =      -525.37703187
  atomic energy  EATOM  =      2374.53790806
  Solvation  Ediel_sol  =         0.00000000
  ---------------------------------------------------
  free energy    TOTEN  =       -13.46398539 eV

  energy without entropy =      -13.43758607  energy(sigma->0) =      -13.45078573


--------------------------------------------------------------------------------------------------------




 average (electrostatic) potential at core
  the test charge radii are     1.0703  0.9406
  (the norm of the test charge is              1.0000)
       1 -93.5173       2-100.4836       3-100.4121
 
 
 
 E-fermi :  -4.1781     XC(G=0):  -0.9279     alpha+bet : -0.4186


 spin component 1

 k-point     1 :       0.1250    0.1250    0.1250
  band No.  band energies     occupation 
      1     -60.3268      1.00000
      2     -36.7618      1.00000
      3     -36.4387      1.00000
      4     -36.3532      1.00000
      5     -19.8328      1.00000
      6     -19.6668      1.00000
      7      -9.2041      1.00000
      8      -8.7145      1.00000
      9      -8.0920      1.00000
     10      -8.0283      1.00000
     11      -7.8539      1.00000
     12      -7.7092      1.00000
     13      -4.9004      1.00000
     14      -4.5598      0.99652
     15      -4.4266      0.96058
     16      -3.9351      0.04288
     17      -3.2419      0.00000
     18      -1.9094      0.00000
     19      -0.8060      0.00000
     20      -0.0420      0.00000
     21       0.3820      0.00000
     22       0.4989      0.00000
     23       0.8928      0.00000
     24       1.0714      0.00000
     25       1.1283      0.00000
     26       1.3538      0.00000
     27       1.3599      0.00000
     28       1.4956      0.00000
     29       1.5788      0.00000
     30       1.8125      0.00000
     31       1.8945      0.00000
     32       1.9430      0.00000

 k-point     2 :       0.3750    0.1250    0.1250
  band No.  band energies     occupation 
      1     -60.3268      1.00000
      2     -36.7618      1.00000
      3     -36.4387      1.00000
      4     -36.3532      1.00000
      5     -19.8328      1.00000
      6     -19.6668      1.00000
      7      -9.2041      1.00000
      8      -8.7145      1.00000
      9      -8.0920      1.00000
     10      -8.0283      1.00000
     11      -7.8539      1.00000
     12      -7.7091      1.00000
     13      -4.9002      1.00000
     14      -4.5598      0.99652
     15      -4.4266      0.96057
     16      -3.9351      0.04291
     17      -3.2418      0.00000
     18      -1.9075      0.00000
     19      -0.8420      0.00000
     20       0.0541      0.00000
     21       0.4410      0.00000
     22       0.4970      0.00000
     23       0.7655      0.00000
     24       1.0478      0.00000
     25       1.1197      0.00000
     26       1.1731      0.00000
     27       1.3826      0.00000
     28       1.5072      0.00000
     29       1.5983      0.00000
     30       1.7228      0.00000
     31       1.9133      0.00000
     32       1.9681      0.00000

 k-point     3 :       0.1250    0.3750    0.1250
  band No.  band energies     occupation 
      1     -60.3268      1.00000
      2     -36.7618      1.00000
      3     -36.4386      1.00000
      4     -36.3532      1.00000
      5     -19.8328      1.00000
      6     -19.6668      1.00000
      7      -9.2040      1.00000
      8      -8.7144      1.00000
      9      -8.0920      1.00000
     10      -8.0283      1.00000
     11      -7.8539      1.00000
     12      -7.7092      1.00000
     13      -4.9004      1.00000
     14      -4.5598      0.99653
     15      -4.4267      0.96064
     16      -3.9351      0.04287
     17      -3.2416      0.00000
     18      -1.9035      0.00000
     19      -0.8050      0.00000
     20      -0.0213      0.00000
     21       0.2278      0.00000
     22       0.5506      0.00000
     23       0.9520      0.00000
     24       1.0395      0.00000
     25       1.1465      0.00000
     26       1.2589      0.00000
     27       1.4454      0.00000
     28       1.4955      0.00000
     29       1.5765      0.00000
     30       1.6677      0.00000
     31       1.8119      0.00000
     32       1.9102      0.00000

 k-point     4 :       0.3750    0.3750    0.1250
  band No.  band energies     occupation 
      1     -60.3268      1.00000
      2     -36.7618      1.00000
      3     -36.4386      1.00000
      4     -36.3532      1.00000
      5     -19.8328      1.00000
      6     -19.6668      1.00000
      7      -9.2040      1.00000
      8      -8.7144      1.00000
      9      -8.0920      1.00000
     10      -8.0282      1.00000
     11      -7.8539      1.00000
     12      -7.7091      1.00000
     13      -4.9002      1.00000
     14      -4.5597      0.99652
     15      -4.4266      0.96060
     16      -3.9350      0.04284
     17      -3.2415      0.00000
     18      -1.9017      0.00000
     19      -0.8395      0.00000
     20       0.0525      0.00000
     21       0.3188      0.00000
     22       0.5768      0.00000
     23       0.7628      0.00000
     24       0.8736      0.00000
     25       1.1654      0.00000
     26       1.2275      0.00000
     27       1.3979      0.00000
     28       1.5389      0.00000
     29       1.6413      0.00000
     30       1.7333      0.00000
     31       1.8107      0.00000
     32       1.9826      0.00000

 k-point     5 :       0.1250   -0.3750    0.1250
  band No.  band energies     occupation 
      1     -60.3268      1.00000
      2     -36.7618      1.00000
      3     -36.4386      1.00000
      4     -36.3532      1.00000
      5     -19.8328      1.00000
      6     -19.6668      1.00000
      7      -9.2040      1.00000
      8      -8.7145      1.00000
      9      -8.0920      1.00000
     10      -8.0283      1.00000
     11      -7.8539      1.00000
     12      -7.7091      1.00000
     13      -4.9003      1.00000
     14      -4.5597      0.99652
     15      -4.4266      0.96060
     16      -3.9351      0.04289
     17      -3.2416      0.00000
     18      -1.9035      0.00000
     19      -0.8050      0.00000
     20      -0.0154      0.00000
     21       0.2113      0.00000
     22       0.5654      0.00000
     23       0.9628      0.00000
     24       1.0348      0.00000
     25       1.1507      0.00000
     26       1.2560      0.00000
     27       1.4412      0.00000
     28       1.4813      0.00000
     29       1.5735      0.00000
     30       1.6614      0.00000
     31       1.7883      0.00000
     32       1.9312      0.00000

 k-point     6 :       0.3750   -0.3750    0.1250
  band No.  band energies     occupation 
      1     -60.3268      1.00000
      2     -36.7618      1.00000
      3     -36.4386      1.00000
      4     -36.3532      1.00000
      5     -19.8328      1.00000
      6     -19.6668      1.00000
      7      -9.2040      1.00000
      8      -8.7144      1.00000
      9      -8.0920      1.00000
     10      -8.0282      1.00000
     11      -7.8539      1.00000
     12      -7.7091      1.00000
     13      -4.9002      1.00000
     14      -4.5598      0.99652
     15      -4.4266      0.96058
     16      -3.9350      0.04283
     17      -3.2415      0.00000
     18      -1.9017      0.00000
     19      -0.8396      0.00000
     20       0.0577      0.00000
     21       0.3042      0.00000
     22       0.5914      0.00000
     23       0.7529      0.00000
     24       0.8829      0.00000
     25       1.1570      0.00000
     26       1.2355      0.00000
     27       1.3964      0.00000
     28       1.5477      0.00000
     29       1.6352      0.00000
     30       1.7162      0.00000
     31       1.8404      0.00000
     32       1.9775      0.00000

 k-point     7 :       0.1250   -0.1250    0.1250
  band No.  band energies     occupation 
      1     -60.3268      1.00000
      2     -36.7618      1.00000
      3     -36.4386      1.00000
      4     -36.3532      1.00000
      5     -19.8328      1.00000
      6     -19.6668      1.00000
      7      -9.2041      1.00000
      8      -8.7145      1.00000
      9      -8.0920      1.00000
     10      -8.0283      1.00000
     11      -7.8539      1.00000
     12      -7.7091      1.00000
     13      -4.9004      1.00000
     14      -4.5598      0.99652
     15      -4.4266      0.96061
     16      -3.9350      0.04286
     17      -3.2419      0.00000
     18      -1.9093      0.00000
     19      -0.8061      0.00000
     20      -0.0384      0.00000
     21       0.3494      0.00000
     22       0.5333      0.00000
     23       0.9043      0.00000
     24       1.0472      0.00000
     25       1.1412      0.00000
     26       1.3412      0.00000
     27       1.3831      0.00000
     28       1.5054      0.00000
     29       1.5785      0.00000
     30       1.7384      0.00000
     31       1.8687      0.00000
     32       1.9126      0.00000

 k-point     8 :       0.3750   -0.1250    0.1250
  band No.  band energies     occupation 
      1     -60.3268      1.00000
      2     -36.7618      1.00000
      3     -36.4387      1.00000
      4     -36.3532      1.00000
      5     -19.8328      1.00000
      6     -19.6668      1.00000
      7      -9.2040      1.00000
      8      -8.7144      1.00000
      9      -8.0920      1.00000
     10      -8.0283      1.00000
     11      -7.8539      1.00000
     12      -7.7092      1.00000
     13      -4.9002      1.00000
     14      -4.5598      0.99653
     15      -4.4267      0.96062
     16      -3.9350      0.04283
     17      -3.2418      0.00000
     18      -1.9074      0.00000
     19      -0.8420      0.00000
     20       0.0582      0.00000
     21       0.4114      0.00000
     22       0.5187      0.00000
     23       0.7761      0.00000
     24       1.0470      0.00000
     25       1.1109      0.00000
     26       1.1661      0.00000
     27       1.3972      0.00000
     28       1.5403      0.00000
     29       1.5975      0.00000
     30       1.7027      0.00000
     31       1.8843      0.00000
     32       1.9692      0.00000

 k-point     9 :       0.1250    0.1250    0.3750
  band No.  band energies     occupation 
      1     -60.3268      1.00000
      2     -36.7618      1.00000
      3     -36.4386      1.00000
      4     -36.3532      1.00000
      5     -19.8328      1.00000
      6     -19.6668      1.00000
      7      -9.2040      1.00000
      8      -8.7145      1.00000
      9      -8.0920      1.00000
     10      -8.0283      1.00000
     11      -7.8539      1.00000
     12      -7.7091      1.00000
     13      -4.9004      1.00000
     14      -4.5598      0.99653
     15      -4.4267      0.96065
     16      -3.9351      0.04287
     17      -3.2415      0.00000
     18      -1.9035      0.00000
     19      -0.8050      0.00000
     20      -0.0209      0.00000
     21       0.2280      0.00000
     22       0.5482      0.00000
     23       0.9490      0.00000
     24       1.0375      0.00000
     25       1.1446      0.00000
     26       1.2696      0.00000
     27       1.4398      0.00000
     28       1.4960      0.00000
     29       1.5795      0.00000
     30       1.6611      0.00000
     31       1.8200      0.00000
     32       1.9098      0.00000

 k-point    10 :       0.3750    0.1250    0.3750
  band No.  band energies     occupation 
      1     -60.3268      1.00000
      2     -36.7618      1.00000
      3     -36.4386      1.00000
      4     -36.3532      1.00000
      5     -19.8328      1.00000
      6     -19.6668      1.00000
      7      -9.2040      1.00000
      8      -8.7145      1.00000
      9      -8.0920      1.00000
     10      -8.0282      1.00000
     11      -7.8538      1.00000
     12      -7.7091      1.00000
     13      -4.9002      1.00000
     14      -4.5597      0.99652
     15      -4.4266      0.96060
     16      -3.9350      0.04284
     17      -3.2414      0.00000
     18      -1.9017      0.00000
     19      -0.8396      0.00000
     20       0.0542      0.00000
     21       0.3160      0.00000
     22       0.5762      0.00000
     23       0.7549      0.00000
     24       0.8801      0.00000
     25       1.1670      0.00000
     26       1.2291      0.00000
     27       1.4000      0.00000
     28       1.5363      0.00000
     29       1.6446      0.00000
     30       1.7296      0.00000
     31       1.8106      0.00000
     32       1.9801      0.00000

 k-point    11 :       0.1250    0.3750    0.3750
  band No.  band energies     occupation 
      1     -60.3268      1.00000
      2     -36.7618      1.00000
      3     -36.4386      1.00000
      4     -36.3532      1.00000
      5     -19.8328      1.00000
      6     -19.6668      1.00000
      7      -9.2040      1.00000
      8      -8.7145      1.00000
      9      -8.0920      1.00000
     10      -8.0283      1.00000
     11      -7.8538      1.00000
     12      -7.7091      1.00000
     13      -4.9003      1.00000
     14      -4.5597      0.99651
     15      -4.4267      0.96066
     16      -3.9350      0.04285
     17      -3.2412      0.00000
     18      -1.8978      0.00000
     19      -0.8041      0.00000
     20       0.0055      0.00000
     21       0.1731      0.00000
     22       0.5114      0.00000
     23       0.8066      0.00000
     24       1.0497      0.00000
     25       1.1289      0.00000
     26       1.2819      0.00000
     27       1.5044      0.00000
     28       1.5732      0.00000
     29       1.6114      0.00000
     30       1.7338      0.00000
     31       1.7532      0.00000
     32       2.0028      0.00000

 k-point    12 :       0.3750    0.3750    0.3750
  band No.  band energies     occupation 
      1     -60.3268      1.00000
      2     -36.7618      1.00000
      3     -36.4387      1.00000
      4     -36.3532      1.00000
      5     -19.8328      1.00000
      6     -19.6668      1.00000
      7      -9.2041      1.00000
      8      -8.7145      1.00000
      9      -8.0921      1.00000
     10      -8.0283      1.00000
     11      -7.8539      1.00000
     12      -7.7091      1.00000
     13      -4.9003      1.00000
     14      -4.5598      0.99653
     15      -4.4268      0.96069
     16      -3.9351      0.04287
     17      -3.2413      0.00000
     18      -1.8962      0.00000
     19      -0.8374      0.00000
     20       0.0708      0.00000
     21       0.2371      0.00000
     22       0.6364      0.00000
     23       0.8163      0.00000
     24       0.8285      0.00000
     25       0.9333      0.00000
     26       1.0989      0.00000
     27       1.2305      0.00000
     28       1.7233      0.00000
     29       1.7573      0.00000
     30       1.9925      0.00000
     31       2.1373      0.00000
     32       2.1433      0.00000

 k-point    13 :       0.1250   -0.3750    0.3750
  band No.  band energies     occupation 
      1     -60.3268      1.00000
      2     -36.7618      1.00000
      3     -36.4386      1.00000
      4     -36.3532      1.00000
      5     -19.8328      1.00000
      6     -19.6668      1.00000
      7      -9.2040      1.00000
      8      -8.7144      1.00000
      9      -8.0920      1.00000
     10      -8.0283      1.00000
     11      -7.8538      1.00000
     12      -7.7091      1.00000
     13      -4.9003      1.00000
     14      -4.5597      0.99652
     15      -4.4267      0.96063
     16      -3.9350      0.04281
     17      -3.2412      0.00000
     18      -1.8979      0.00000
     19      -0.8041      0.00000
     20       0.0166      0.00000
     21       0.1512      0.00000
     22       0.5279      0.00000
     23       0.8079      0.00000
     24       1.0643      0.00000
     25       1.1084      0.00000
     26       1.2837      0.00000
     27       1.5045      0.00000
     28       1.5559      0.00000
     29       1.6251      0.00000
     30       1.7085      0.00000
     31       1.7797      0.00000
     32       2.0200      0.00000

 k-point    14 :       0.3750   -0.3750    0.3750
  band No.  band energies     occupation 
      1     -60.3268      1.00000
      2     -36.7618      1.00000
      3     -36.4387      1.00000
      4     -36.3532      1.00000
      5     -19.8328      1.00000
      6     -19.6668      1.00000
      7      -9.2040      1.00000
      8      -8.7145      1.00000
      9      -8.0921      1.00000
     10      -8.0283      1.00000
     11      -7.8539      1.00000
     12      -7.7091      1.00000
     13      -4.9003      1.00000
     14      -4.5598      0.99653
     15      -4.4268      0.96067
     16      -3.9351      0.04287
     17      -3.2413      0.00000
     18      -1.8962      0.00000
     19      -0.8374      0.00000
     20       0.0799      0.00000
     21       0.2207      0.00000
     22       0.6583      0.00000
     23       0.7897      0.00000
     24       0.8394      0.00000
     25       0.9424      0.00000
     26       1.0742      0.00000
     27       1.2536      0.00000
     28       1.7087      0.00000
     29       1.7763      0.00000
     30       2.0192      0.00000
     31       2.0994      0.00000
     32       2.1681      0.00000

 k-point    15 :       0.1250   -0.1250    0.3750
  band No.  band energies     occupation 
      1     -60.3268      1.00000
      2     -36.7618      1.00000
      3     -36.4386      1.00000
      4     -36.3532      1.00000
      5     -19.8328      1.00000
      6     -19.6668      1.00000
      7      -9.2040      1.00000
      8      -8.7145      1.00000
      9      -8.0920      1.00000
     10      -8.0283      1.00000
     11      -7.8539      1.00000
     12      -7.7091      1.00000
     13      -4.9003      1.00000
     14      -4.5597      0.99652
     15      -4.4266      0.96060
     16      -3.9351      0.04290
     17      -3.2415      0.00000
     18      -1.9036      0.00000
     19      -0.8050      0.00000
     20      -0.0151      0.00000
     21       0.2118      0.00000
     22       0.5626      0.00000
     23       0.9557      0.00000
     24       1.0385      0.00000
     25       1.1473      0.00000
     26       1.2661      0.00000
     27       1.4371      0.00000
     28       1.4817      0.00000
[...]
     20       0.3164      0.00000
     21       0.4265      0.00000
     22       0.7842      0.00000
     23       1.1125      0.00000
     24       1.2586      0.00000
     25       1.2764      0.00000
     26       1.5431      0.00000
     27       1.6531      0.00000
     28       1.7559      0.00000
     29       1.8684      0.00000
     30       1.8779      0.00000
     31       2.0936      0.00000
     32       2.2104      0.00000

 k-point    12 :       0.3750    0.3750    0.3750
  band No.  band energies     occupation 
      1     -58.9674      1.00000
      2     -35.8148      1.00000
      3     -34.5927      1.00000
      4     -34.5441      1.00000
      5     -20.1570      1.00000
      6     -19.8228      1.00000
      7      -9.5140      1.00000
      8      -8.5200      1.00000
      9      -8.3137      1.00000
     10      -7.9829      1.00000
     11      -7.9763      1.00000
     12      -7.9679      1.00000
     13      -2.8133      0.00000
     14      -2.7327      0.00000
     15      -2.5324      0.00000
     16      -2.2660      0.00000
     17      -2.2453      0.00000
     18       0.0008      0.00000
     19       0.2981      0.00000
     20       0.3655      0.00000
     21       0.3889      0.00000
     22       0.8490      0.00000
     23       0.9551      0.00000
     24       0.9635      0.00000
     25       1.2755      0.00000
     26       1.3843      0.00000
     27       1.6430      0.00000
     28       1.9122      0.00000
     29       2.1582      0.00000
     30       2.2763      0.00000
     31       2.3241      0.00000
     32       2.3324      0.00000

 k-point    13 :       0.1250   -0.3750    0.3750
  band No.  band energies     occupation 
      1     -58.9673      1.00000
      2     -35.8148      1.00000
      3     -34.5926      1.00000
      4     -34.5441      1.00000
      5     -20.1570      1.00000
      6     -19.8228      1.00000
      7      -9.5139      1.00000
      8      -8.5199      1.00000
      9      -8.3137      1.00000
     10      -7.9828      1.00000
     11      -7.9763      1.00000
     12      -7.9679      1.00000
     13      -2.8139      0.00000
     14      -2.7324      0.00000
     15      -2.5323      0.00000
     16      -2.2659      0.00000
     17      -2.2452      0.00000
     18      -0.0158      0.00000
     19       0.2451      0.00000
     20       0.3555      0.00000
     21       0.4266      0.00000
     22       0.8132      0.00000
     23       1.0861      0.00000
     24       1.2085      0.00000
     25       1.3402      0.00000
     26       1.5187      0.00000
     27       1.6251      0.00000
     28       1.7557      0.00000
     29       1.8724      0.00000
     30       1.9892      0.00000
     31       2.0298      0.00000
     32       2.2338      0.00000

 k-point    14 :       0.3750   -0.3750    0.3750
  band No.  band energies     occupation 
      1     -58.9674      1.00000
      2     -35.8148      1.00000
      3     -34.5927      1.00000
      4     -34.5441      1.00000
      5     -20.1570      1.00000
      6     -19.8228      1.00000
      7      -9.5140      1.00000
      8      -8.5200      1.00000
      9      -8.3137      1.00000
     10      -7.9828      1.00000
     11      -7.9763      1.00000
     12      -7.9679      1.00000
     13      -2.8133      0.00000
     14      -2.7326      0.00000
     15      -2.5323      0.00000
     16      -2.2660      0.00000
     17      -2.2452      0.00000
     18       0.0092      0.00000
     19       0.2870      0.00000
     20       0.3270      0.00000
     21       0.4256      0.00000
     22       0.8539      0.00000
     23       0.9354      0.00000
     24       1.0373      0.00000
     25       1.2220      0.00000
     26       1.3339      0.00000
     27       1.6282      0.00000
     28       2.0579      0.00000
     29       2.1620      0.00000
     30       2.2441      0.00000
     31       2.3314      0.00000
     32       2.3721      0.00000

 k-point    15 :       0.1250   -0.1250    0.3750
  band No.  band energies     occupation 
      1     -58.9673      1.00000
      2     -35.8148      1.00000
      3     -34.5927      1.00000
      4     -34.5441      1.00000
      5     -20.1570      1.00000
      6     -19.8228      1.00000
      7      -9.5140      1.00000
      8      -8.5200      1.00000
      9      -8.3137      1.00000
     10      -7.9829      1.00000
     11      -7.9763      1.00000
     12      -7.9679      1.00000
     13      -2.8141      0.00000
     14      -2.7327      0.00000
     15      -2.5323      0.00000
     16      -2.2659      0.00000
     17      -2.2453      0.00000
     18      -0.0821      0.00000
     19       0.2087      0.00000
     20       0.3997      0.00000
     21       0.4981      0.00000
     22       1.0229      0.00000
     23       1.0673      0.00000
     24       1.2102      0.00000
     25       1.3397      0.00000
     26       1.5185      0.00000
     27       1.5988      0.00000
     28       1.7113      0.00000
     29       1.8129      0.00000
     30       1.8610      0.00000
     31       2.0489      0.00000
     32       2.1136      0.00000

 k-point    16 :       0.3750   -0.1250    0.3750
  band No.  band energies     occupation 
      1     -58.9673      1.00000
      2     -35.8148      1.00000
      3     -34.5927      1.00000
      4     -34.5441      1.00000
      5     -20.1570      1.00000
      6     -19.8228      1.00000
      7      -9.5139      1.00000
      8      -8.5199      1.00000
      9      -8.3137      1.00000
     10      -7.9829      1.00000
     11      -7.9762      1.00000
     12      -7.9679      1.00000
     13      -2.8134      0.00000
     14      -2.7325      0.00000
     15      -2.5322      0.00000
     16      -2.2659      0.00000
     17      -2.2452      0.00000
     18      -0.0490      0.00000
     19       0.2509      0.00000
     20       0.2946      0.00000
     21       0.5538      0.00000
     22       0.8018      0.00000
     23       1.1063      0.00000
     24       1.2132      0.00000
     25       1.3022      0.00000
     26       1.4642      0.00000
     27       1.6469      0.00000
     28       1.7198      0.00000
     29       1.8811      0.00000
     30       1.9920      0.00000
     31       2.1132      0.00000
     32       2.2470      0.00000


--------------------------------------------------------------------------------------------------------


 soft charge-density along one line, spin component           1
         0         1         2         3         4         5         6         7         8         9
 total charge-density along one line
 
 soft charge-density along one line, spin component           2
         0         1         2         3         4         5         6         7         8         9
 total charge-density along one line
 
 pseudopotential strength for first ion, spin component:           1
  6.865 -26.275   0.001   0.001   0.000  -0.002  -0.002  -0.000
-26.275  14.625   0.000   0.000   0.000  -0.000  -0.000  -0.000
  0.001   0.000 -13.443   0.055  -0.000  10.642  -0.058   0.000
  0.001   0.000   0.055 -13.448  -0.000  -0.058  10.648   0.000
  0.000   0.000  -0.000  -0.000 -13.406   0.000   0.000  10.603
 -0.002  -0.000  10.642  -0.058   0.000   4.981   0.043  -0.000
 -0.002  -0.000  -0.058  10.648   0.000   0.043   4.977  -0.000
 -0.000  -0.000   0.000   0.000  10.603  -0.000  -0.000   5.013
 -0.000  -0.000   0.000  -0.000   0.001  -0.000   0.000  -0.002
  0.038   0.020   0.003   0.003  -0.000  -0.001  -0.001   0.000
 -0.009  -0.006   0.002  -0.002  -0.000   0.002  -0.003   0.000
 -0.000  -0.000  -0.000  -0.000   0.001   0.000  -0.000  -0.002
  0.013   0.008   0.001  -0.001   0.000   0.002  -0.000  -0.000
 -0.000  -0.000  -0.000  -0.000   0.002  -0.000   0.000  -0.002
  0.050   0.025   0.004   0.004  -0.000  -0.001  -0.002   0.000
 -0.012  -0.007   0.002  -0.003  -0.000   0.002  -0.003   0.000
 -0.000  -0.000  -0.000   0.000   0.002   0.000  -0.000  -0.002
  0.016   0.010   0.001  -0.001   0.000   0.003  -0.000  -0.000
 pseudopotential strength for first ion, spin component:           2
  6.652 -25.701   0.002   0.002  -0.000  -0.009  -0.008   0.000
-25.701  14.112   0.006   0.006   0.000  -0.001  -0.001  -0.000
  0.002   0.006 -13.173   0.107   0.000  10.341  -0.128  -0.000
  0.002   0.006   0.107 -13.182  -0.000  -0.128  10.352   0.000
 -0.000   0.000   0.000  -0.000 -13.090  -0.000   0.000  10.242
 -0.009  -0.001  10.341  -0.128  -0.000   5.111   0.066   0.000
 -0.008  -0.001  -0.128  10.352   0.000   0.066   5.105  -0.000
  0.000  -0.000  -0.000   0.000  10.242   0.000  -0.000   5.160
  0.000   0.000  -0.000  -0.000   0.004   0.000   0.000  -0.006
  0.071   0.038   0.008   0.007  -0.000  -0.008  -0.008   0.000
 -0.020  -0.010   0.002  -0.003  -0.000   0.001  -0.003   0.000
 -0.000  -0.000  -0.000  -0.000   0.004   0.000   0.000  -0.006
  0.028   0.014   0.001  -0.002   0.000   0.003   0.001  -0.000
  0.000   0.000  -0.000  -0.000   0.006  -0.000   0.000  -0.008
  0.094   0.047   0.010   0.009  -0.000  -0.010  -0.010   0.000
 -0.026  -0.012   0.003  -0.003  -0.000   0.001  -0.003   0.000
 -0.000  -0.000  -0.000   0.000   0.005   0.000  -0.000  -0.007
  0.036   0.017   0.001  -0.002   0.000   0.004   0.001  -0.000
 total augmentation occupancy for first ion, spin component:           1
  1.999  -0.024  -0.001  -0.001   0.000  -0.002  -0.002   0.000   0.000   0.082  -0.022   0.000   0.030   0.000  -0.071   0.018
 -0.024   1.165  -0.014  -0.014   0.000   0.019   0.019   0.000   0.000  -0.572   0.211   0.000  -0.314   0.000   0.570  -0.207
 -0.001  -0.014   1.999  -0.003   0.000  -0.026   0.010   0.000   0.000   0.001   0.032   0.000   0.035   0.000   0.005  -0.011
 -0.001  -0.014  -0.003   1.999   0.000   0.010  -0.027   0.000   0.000  -0.003  -0.047   0.000  -0.012   0.000   0.006   0.018
  0.000   0.000   0.000   0.000   1.996   0.000   0.000  -0.016  -0.012   0.000   0.000  -0.012   0.000   0.009   0.000   0.000
 -0.002   0.019  -0.026   0.010   0.000   0.048  -0.035   0.000   0.000  -0.058  -0.114   0.000  -0.109   0.000   0.022   0.055
 -0.002   0.019   0.010  -0.027   0.000  -0.035   0.051   0.000   0.000  -0.042   0.161   0.000   0.051   0.000   0.015  -0.084
  0.000   0.000   0.000   0.000  -0.016   0.000   0.000   0.011   0.003   0.000   0.000   0.003   0.000  -0.009   0.000   0.000
  0.000   0.000   0.000   0.000  -0.012   0.000   0.000   0.003   1.185   0.000   0.000   0.043   0.000  -0.278   0.000   0.000
  0.082  -0.572   0.001  -0.003   0.000  -0.058  -0.042   0.000   0.000   3.013  -0.610   0.000   0.943   0.000  -1.288   0.396
 -0.022   0.211   0.032  -0.047   0.000  -0.114   0.161   0.000   0.000  -0.610   1.816   0.000  -0.101   0.000   0.397  -0.776
  0.000   0.000   0.000   0.000  -0.012   0.000   0.000   0.003   0.043   0.000   0.000   1.182   0.000   0.212   0.000   0.000
  0.030  -0.314   0.035  -0.012   0.000  -0.109   0.051   0.000   0.000   0.943  -0.101   0.000   1.816   0.000  -0.646  -0.104
  0.000   0.000   0.000   0.000   0.009   0.000   0.000  -0.009  -0.278   0.000   0.000   0.212   0.000   0.115   0.000   0.000
 -0.071   0.570   0.005   0.006   0.000   0.022   0.015   0.000   0.000  -1.288   0.397   0.000  -0.646   0.000   0.713  -0.226
  0.018  -0.207  -0.011   0.018   0.000   0.055  -0.084   0.000   0.000   0.396  -0.776   0.000  -0.104   0.000  -0.226   0.382
  0.000   0.000   0.000   0.000   0.009   0.000   0.000  -0.009   0.213   0.000   0.000  -0.297   0.000  -0.100   0.000   0.000
 -0.025   0.307  -0.015   0.003   0.000   0.060  -0.021   0.000   0.000  -0.644  -0.104   0.000  -0.577   0.000   0.363   0.037
 total augmentation occupancy for first ion, spin component:           2
  0.003   0.025   0.000  -0.000   0.000  -0.000  -0.000   0.000   0.000   0.058  -0.022   0.000   0.033   0.000  -0.037   0.015
  0.025   0.660   0.004   0.003   0.000  -0.014  -0.013   0.000   0.000   0.459  -0.170   0.000   0.254   0.000  -0.003   0.003
  0.000   0.004   0.004   0.003   0.000   0.010   0.007   0.000   0.000  -0.009   0.002   0.000   0.003   0.000   0.012  -0.000
 -0.000   0.003   0.003   0.004   0.000   0.007   0.010   0.000   0.000  -0.009  -0.003   0.000  -0.000   0.000   0.012   0.002
  0.000   0.000   0.000   0.000   0.007   0.000   0.000   0.019  -0.005   0.000   0.000  -0.005   0.000   0.008   0.000   0.000
 -0.000  -0.014   0.010   0.007   0.000   0.002   0.001   0.000   0.000  -0.016  -0.006   0.000   0.004   0.000  -0.003   0.000
 -0.000  -0.013   0.007   0.010   0.000   0.001   0.002   0.000   0.000  -0.015   0.001   0.000   0.008   0.000  -0.003  -0.000
  0.000   0.000   0.000   0.000   0.019   0.000   0.000   0.002  -0.014   0.000   0.000  -0.013   0.000  -0.001   0.000   0.000
  0.000   0.000   0.000   0.000  -0.005   0.000   0.000  -0.014   0.681   0.000   0.000   0.505   0.000  -0.047   0.000   0.000
  0.058   0.459  -0.009  -0.009   0.000  -0.016  -0.015   0.000   0.000   0.606   0.137   0.000  -0.276   0.000   0.047  -0.025
 -0.022  -0.170   0.002  -0.003   0.000  -0.006   0.001   0.000   0.000   0.137   0.347   0.000  -0.342   0.000  -0.026  -0.038
  0.000   0.000   0.000   0.000  -0.005   0.000   0.000  -0.013   0.505   0.000   0.000   0.636   0.000   0.002   0.000   0.000
  0.033   0.254   0.003  -0.000   0.000   0.004   0.008   0.000   0.000  -0.276  -0.342   0.000   0.774   0.000   0.037  -0.016
  0.000   0.000   0.000   0.000   0.008   0.000   0.000  -0.001  -0.047   0.000   0.000   0.002   0.000   0.010   0.000   0.000
 -0.037  -0.003   0.012   0.012   0.000  -0.003  -0.003   0.000   0.000   0.047  -0.026   0.000   0.037   0.000  -0.035   0.014
  0.015   0.003  -0.000   0.002   0.000   0.000  -0.000   0.000   0.000  -0.025  -0.038   0.000  -0.016   0.000   0.014   0.005
  0.000   0.000   0.000   0.000   0.008   0.000   0.000  -0.001   0.002   0.000   0.000  -0.047   0.000  -0.004   0.000   0.000
 -0.022  -0.005  -0.003  -0.002   0.000   0.000   0.000   0.000   0.000   0.033  -0.016   0.000  -0.024   0.000  -0.021   0.010


------------------------ aborting loop because EDIFF is reached ----------------------------------------


    CHARGE:  cpu time    0.0919: real time    0.0928
    FORLOC:  cpu time    0.0013: real time    0.0013
    FORNL :  cpu time    0.1502: real time    0.1508
    STRESS:  cpu time    0.8383: real time    0.8414
    FORCOR:  cpu time    0.0556: real time    0.0558
    FORHAR:  cpu time    0.0058: real time    0.0058
    MIXING:  cpu time    0.0015: real time    0.0016
    OFIELD:  cpu time    0.0000: real time    0.0000

  FORCE on cell =-STRESS in cart. coord.  units (eV):
  Direction    XX          YY          ZZ          XY          YZ          ZX
  --------------------------------------------------------------------------------------
  Alpha Z     2.73438     2.73438     2.73438
  Ewald    -427.77674   236.11517   289.47292    -0.00000  -532.43633    -0.00000
  Hartree   375.63974   831.51759   868.11758    -0.00000  -344.76417    -0.00000
  E(xc)    -111.24949  -110.73782  -110.69847    -0.00000    -0.44597    -0.00000
  Local    -465.85845 -1572.59970 -1661.08054    -0.00000   860.50811    -0.00000
  n-local   149.54650   157.70822   158.35005    -0.00001    -7.29227    -0.00008
  augment   -18.59799   -19.55351   -19.64496    -0.00000     1.04284     0.00000
  Kinetic   495.16711   474.45032   472.41553    -0.00003    23.26533     0.00009
  Fock        0.00000     0.00000     0.00000     0.00000     0.00000     0.00000
  -------------------------------------------------------------------------------------
  Total      -0.39494    -0.36534    -0.33350     0.00000    -0.12246     0.00000
  in kB      -0.36618    -0.33874    -0.30921     0.00000    -0.11354     0.00000
  external pressure =       -0.34 kB  Pullay stress =        0.00 kB


 VOLUME and BASIS-vectors are now :
 -----------------------------------------------------------------------------
  energy-cutoff  :      293.24
  volume of cell :     1728.00
      direct lattice vectors                 reciprocal lattice vectors
    12.000000000  0.000000000  0.000000000     0.083333333  0.000000000  0.000000000
     0.000000000 12.000000000  0.000000000     0.000000000  0.083333333  0.000000000
     0.000000000  0.000000000 12.000000000     0.000000000  0.000000000  0.083333333

  length of vectors
    12.000000000 12.000000000 12.000000000     0.083333333  0.083333333  0.083333333


 FORCES acting on ions
    electron-ion (+dipol)            ewald-force                    non-local-force                 convergence-correction
 -----------------------------------------------------------------------------------------------
   0.834E-14 0.914E+02 0.877E+02   -.775E-16 -.897E+02 -.861E+02   0.000E+00 -.165E+01 -.159E+01   0.115E-13 -.582E-02 0.126E-01
   0.773E-15 0.138E+03 -.235E+03   -.354E-16 -.139E+03 0.234E+03   0.000E+00 0.590E-01 0.211E+00   -.139E-13 -.209E-03 0.315E-02
   -.856E-14 -.228E+03 0.148E+03   -.197E-16 0.228E+03 -.148E+03   -.169E-20 0.203E+00 0.611E-01   -.171E-13 0.226E-03 0.119E-02
 -----------------------------------------------------------------------------------------------
   0.553E-15 0.139E+01 0.130E+01   -.133E-15 0.284E-13 -.284E-13   -.169E-20 -.139E+01 -.132E+01   -.195E-13 -.581E-02 0.170E-01
 
 
 POSITION                                       TOTAL-FORCE (eV/Angst)
 -----------------------------------------------------------------------------------
      0.00000      0.56562      0.66530         0.000000      0.041499      0.017774
     -0.00000     11.46283      2.66641         0.000000     -0.043708      0.017285
      0.00000      2.51770     11.47553        -0.000000      0.002209     -0.035059
 -----------------------------------------------------------------------------------
    total drift:                               -0.000000     -0.002245     -0.004433


--------------------------------------------------------------------------------------------------------



  FREE ENERGIE OF THE ION-ELECTRON SYSTEM (eV)
  ---------------------------------------------------
  free  energy   TOTEN  =       -13.66671552 eV

  energy  without entropy=      -13.66598364  energy(sigma->0) =      -13.66634958
 
 d Force = 0.5962868E-03[-0.109E-03, 0.130E-02]  d Energy = 0.6696311E-03-0.733E-04
 d Force =-0.2606825E+01[-0.262E+01,-0.260E+01]  d Ewald  =-0.2606807E+01-0.186E-04


--------------------------------------------------------------------------------------------------------


    POTLOK:  cpu time    0.0613: real time    0.0615


--------------------------------------------------------------------------------------------------------




--------------------------------------------------------------------------------------------------------


  
 reached required accuracy - stopping structural energy minimisation
 writing wavefunctions
     LOOP+:  cpu time   14.4138: real time   14.8332
    4ORBIT:  cpu time    0.0000: real time    0.0000

 total amount of memory used by VASP MPI-rank0   160921. kBytes
=======================================================================

   base      :      30000. kBytes
   nonl-proj :      91928. kBytes
   fftplans  :       2864. kBytes
   grid      :      15769. kBytes
   one-center:         93. kBytes
   wavefun   :      20267. kBytes
 
  
  
 General timing and accounting informations for this job:
 ========================================================
  
                  Total CPU time used (sec):      282.671
                            User time (sec):      272.092
                          System time (sec):       10.579
                         Elapsed time (sec):      285.395
  
                   Maximum memory used (kb):      323504.
                   Average memory used (kb):           0.
  
                          Minor page faults:       187744
                          Major page faults:           35
                 Voluntary context switches:        19859
