 vasp.5.4.4.18Apr17-6-g9f103f2a35 (build Jan 21 2021 13:12:21) complex          
  
 executed on             LinuxIFC date 2021.12.21  00:05:57
 running on   16 total cores
 distrk:  each k-point on   16 cores,    1 groups
 distr:  one band on NCORES_PER_BAND=   1 cores,   16 groups


--------------------------------------------------------------------------------------------------------


 INCAR:
 POTCAR:    PAW_PBE Nb_sv 25May2007               

 ----------------------------------------------------------------------------- 
|                                                                             |
|           W    W    AA    RRRRR   N    N  II  N    N   GGGG   !!!           |
|           W    W   A  A   R    R  NN   N  II  NN   N  G    G  !!!           |
|           W    W  A    A  R    R  N N  N  II  N N  N  G       !!!           |
|           W WW W  AAAAAA  RRRRR   N  N N  II  N  N N  G  GGG   !            |
|           WW  WW  A    A  R   R   N   NN  II  N   NN  G    G                |
|           W    W  A    A  R    R  N    N  II  N    N   GGGG   !!!           |
|                                                                             |
|      For optimal performance we recommend to set                            |
|        NCORE= 4 - approx SQRT( number of cores)                             |
|      NCORE specifies how many cores store one orbital (NPAR=cpu/NCORE).     |
|      This setting can  greatly improve the performance of VASP for DFT.     |
|      The default,   NCORE=1            might be grossly inefficient         |
|      on modern multi-core architectures or massively parallel machines.     |
|      Do your own testing !!!!                                               |
|      Unfortunately you need to use the default for GW and RPA calculations. |
|      (for HF NCORE is supported but not extensively tested yet)             |
|                                                                             |
 ----------------------------------------------------------------------------- 

 POTCAR:    PAW_PBE Nb_sv 25May2007               
   VRHFIN =Nb: 4p5s4d                                                           
   LEXCH  = PE                                                                  
   EATOM  =  1555.1913 eV,  114.3033 Ry                                         
                                                                                
   TITEL  = PAW_PBE Nb_sv 25May2007                                             
   LULTRA =        F    use ultrasoft PP ?                                      
   IUNSCR =        1    unscreen: 0-lin 1-nonlin 2-no                           
   RPACOR =    1.800    partial core radius                                     
   POMASS =   92.910; ZVAL   =   13.000    mass and valenz                      
   RCORE  =    2.400    outmost cutoff radius                                   
   RWIGS  =    2.400; RWIGS  =    1.270    wigner-seitz radius (au A)           
   ENMAX  =  293.235; ENMIN  =  219.927 eV                                      
   ICORE  =        3    local potential                                         
   LCOR   =        T    correct aug charges                                     
   LPAW   =        T    paw PP                                                  
   EAUG   =  455.659                                                            
   DEXC   =    0.000                                                            
   RMAX   =    2.456    core radius for proj-oper                               
   RAUG   =    1.300    factor for augmentation sphere                          
   RDEP   =    2.451    radius for radial grids                                 
   RDEPT  =    1.956    core radius for aug-charge                              
                                                                                
   Atomic configuration                                                         
   11 entries                                                                   
     n  l   j            E        occ.                                          
     1  0  0.50    -18805.2457   2.0000                                         
     2  0  0.50     -2630.2869   2.0000                                         
     2  1  1.50     -2348.4046   6.0000                                         
     3  0  0.50      -438.8757   2.0000                                         
     3  1  1.50      -346.7588   6.0000                                         
     3  2  2.50      -196.2560  10.0000                                         
     4  0  0.50       -58.3859   2.0000                                         
     5  0  0.50        -3.9816   1.0000                                         
     4  1  1.50       -34.5141   6.0000                                         
     4  2  2.50        -3.0408   4.0000                                         
     4  3  2.50        -1.3606   0.0000                                         
   Description                                                                  
     l       E           TYP  RCUT    TYP  RCUT                                 
     0    -58.3859094     23  2.200                                             
     0     -3.9816262     23  2.200                                             
     1    -34.5140738     23  2.200                                             
     1     13.6058260     23  2.200                                             
     2     -3.0408010     23  2.200                                             
     2     -0.1283038     23  2.200                                             
     3     -1.3605826     23  2.400                                             
  local pseudopotential read in
  partial core-charges read in
  partial kinetic energy density read in
  atomic valenz-charges read in
  non local Contribution for L=           0  read in
    real space projection operators read in
  non local Contribution for L=           0  read in
    real space projection operators read in
  non local Contribution for L=           1  read in
    real space projection operators read in
  non local Contribution for L=           1  read in
    real space projection operators read in
  non local Contribution for L=           2  read in
    real space projection operators read in
  non local Contribution for L=           2  read in
    real space projection operators read in
    PAW grid and wavefunctions read in
 
   number of l-projection  operators is LMAX  =           6
   number of lm-projection operators is LMMAX =          18
 
  PAW_PBE Nb_sv 25May2007               :
 energy of atom  1       EATOM=-1555.1913
 kinetic energy error for atom=    0.0711 (will be added to EATOM!!)
 
 
 POSCAR: O dimer in a box                        
  positions in direct lattice
  velocities in cartesian coordinates
 exchange correlation table for  LEXCH =        8
   RHO(1)=    0.500       N(1)  =     2000
   RHO(2)=  100.500       N(2)  =     4000
 


--------------------------------------------------------------------------------------------------------


 ion  position               nearest neighbor table
   1  0.500  0.500  0.500-
 
  LATTYP: Found a simple cubic cell.
 ALAT       =    15.0000000000
  
  Lattice vectors:
  
 A1 = (  15.0000000000,   0.0000000000,   0.0000000000)
 A2 = (   0.0000000000,  15.0000000000,   0.0000000000)
 A3 = (   0.0000000000,   0.0000000000,  15.0000000000)


Analysis of symmetry for initial positions (statically):
=====================================================================
 Subroutine PRICEL returns:
 Original cell was already a primitive cell.
 

 Routine SETGRP: Setting up the symmetry group for a 
 simple cubic supercell.


 Subroutine GETGRP returns: Found 48 space group operations
 (whereof 48 operations were pure point group operations)
 out of a pool of 48 trial point group operations.


The static configuration has the point symmetry O_h .


Analysis of symmetry for dynamics (positions and initial velocities):
=====================================================================
 Subroutine PRICEL returns:
 Original cell was already a primitive cell.
 

 Routine SETGRP: Setting up the symmetry group for a 
 simple cubic supercell.


 Subroutine GETGRP returns: Found 48 space group operations
 (whereof 48 operations were pure point group operations)
 out of a pool of 48 trial point group operations.


The dynamic configuration has the point symmetry O_h .


Analysis of constrained symmetry for selective dynamics:
=====================================================================
 Subroutine PRICEL returns:
 Original cell was already a primitive cell.
 

 Routine SETGRP: Setting up the symmetry group for a 
 simple cubic supercell.


 Subroutine GETGRP returns: Found 48 space group operations
 (whereof 48 operations were pure point group operations)
 out of a pool of 48 trial point group operations.


The constrained configuration has the point symmetry O_h .


Analysis of structural, dynamic, and magnetic symmetry:
=====================================================================
 Subroutine PRICEL returns:
 Original cell was already a primitive cell.
 

 Routine SETGRP: Setting up the symmetry group for a 
 simple cubic supercell.


 Subroutine GETGRP returns: Found 48 space group operations
 (whereof 48 operations were pure point group operations)
 out of a pool of 48 trial point group operations.


The magnetic configuration has the point symmetry O_h .


 Subroutine INISYM returns: Found 48 space group operations
 (whereof 48 operations are pure point group operations),
 and found     1 'primitive' translations

 
 
 KPOINTS: Gamma-point only                        

Automatic generation of k-mesh.
Space group operators:
 irot       det(A)        alpha          n_x          n_y          n_z        tau_x        tau_y        tau_z
    1     1.000000     0.000000     1.000000     0.000000     0.000000     0.000000     0.000000     0.000000
    2    -1.000000     0.000000     1.000000     0.000000     0.000000     0.000000     0.000000     0.000000
    3     1.000000   120.000000    -0.577350    -0.577350    -0.577350     0.000000     0.000000     0.000000
    4    -1.000000   120.000000    -0.577350    -0.577350    -0.577350     0.000000     0.000000     0.000000
    5     1.000000   120.000000     0.577350     0.577350     0.577350     0.000000     0.000000     0.000000
    6    -1.000000   120.000000     0.577350     0.577350     0.577350     0.000000     0.000000     0.000000
    7     1.000000    90.000000     0.000000     0.000000    -1.000000     0.000000     0.000000     0.000000
    8    -1.000000    90.000000     0.000000     0.000000    -1.000000     0.000000     0.000000     0.000000
    9     1.000000   180.000000     0.000000     0.707107     0.707107     0.000000     0.000000     0.000000
   10    -1.000000   180.000000     0.000000     0.707107     0.707107     0.000000     0.000000     0.000000
   11     1.000000    90.000000     0.000000     1.000000     0.000000     0.000000     0.000000     0.000000
   12    -1.000000    90.000000     0.000000     1.000000     0.000000     0.000000     0.000000     0.000000
   13     1.000000   180.000000     0.000000     0.000000     1.000000     0.000000     0.000000     0.000000
   14    -1.000000   180.000000     0.000000     0.000000     1.000000     0.000000     0.000000     0.000000
   15     1.000000   120.000000    -0.577350     0.577350     0.577350     0.000000     0.000000     0.000000
   16    -1.000000   120.000000    -0.577350     0.577350     0.577350     0.000000     0.000000     0.000000
   17     1.000000   120.000000    -0.577350     0.577350    -0.577350     0.000000     0.000000     0.000000
   18    -1.000000   120.000000    -0.577350     0.577350    -0.577350     0.000000     0.000000     0.000000
   19     1.000000    90.000000     0.000000     0.000000     1.000000     0.000000     0.000000     0.000000
   20    -1.000000    90.000000     0.000000     0.000000     1.000000     0.000000     0.000000     0.000000
   21     1.000000    90.000000    -1.000000     0.000000     0.000000     0.000000     0.000000     0.000000
   22    -1.000000    90.000000    -1.000000     0.000000     0.000000     0.000000     0.000000     0.000000
   23     1.000000   180.000000     0.707107     0.000000     0.707107     0.000000     0.000000     0.000000
   24    -1.000000   180.000000     0.707107     0.000000     0.707107     0.000000     0.000000     0.000000
   25     1.000000   120.000000     0.577350    -0.577350     0.577350     0.000000     0.000000     0.000000
   26    -1.000000   120.000000     0.577350    -0.577350     0.577350     0.000000     0.000000     0.000000
   27     1.000000   120.000000    -0.577350    -0.577350     0.577350     0.000000     0.000000     0.000000
   28    -1.000000   120.000000    -0.577350    -0.577350     0.577350     0.000000     0.000000     0.000000
   29     1.000000   180.000000     1.000000     0.000000     0.000000     0.000000     0.000000     0.000000
   30    -1.000000   180.000000     1.000000     0.000000     0.000000     0.000000     0.000000     0.000000
   31     1.000000    90.000000     0.000000    -1.000000     0.000000     0.000000     0.000000     0.000000
   32    -1.000000    90.000000     0.000000    -1.000000     0.000000     0.000000     0.000000     0.000000
   33     1.000000   180.000000     0.707107     0.707107     0.000000     0.000000     0.000000     0.000000
   34    -1.000000   180.000000     0.707107     0.707107     0.000000     0.000000     0.000000     0.000000
   35     1.000000    90.000000     1.000000     0.000000     0.000000     0.000000     0.000000     0.000000
   36    -1.000000    90.000000     1.000000     0.000000     0.000000     0.000000     0.000000     0.000000
   37     1.000000   120.000000     0.577350    -0.577350    -0.577350     0.000000     0.000000     0.000000
   38    -1.000000   120.000000     0.577350    -0.577350    -0.577350     0.000000     0.000000     0.000000
   39     1.000000   180.000000     0.000000     1.000000     0.000000     0.000000     0.000000     0.000000
   40    -1.000000   180.000000     0.000000     1.000000     0.000000     0.000000     0.000000     0.000000
   41     1.000000   120.000000     0.577350     0.577350    -0.577350     0.000000     0.000000     0.000000
   42    -1.000000   120.000000     0.577350     0.577350    -0.577350     0.000000     0.000000     0.000000
   43     1.000000   180.000000     0.000000    -0.707107     0.707107     0.000000     0.000000     0.000000
   44    -1.000000   180.000000     0.000000    -0.707107     0.707107     0.000000     0.000000     0.000000
   45     1.000000   180.000000     0.707107    -0.707107     0.000000     0.000000     0.000000     0.000000
   46    -1.000000   180.000000     0.707107    -0.707107     0.000000     0.000000     0.000000     0.000000
   47     1.000000   180.000000     0.707107     0.000000    -0.707107     0.000000     0.000000     0.000000
   48    -1.000000   180.000000     0.707107     0.000000    -0.707107     0.000000     0.000000     0.000000
 
 Subroutine IBZKPT returns following result:
 ===========================================
 
 Found      4 irreducible k-points:
 
 Following reciprocal coordinates:
            Coordinates               Weight
  0.125000  0.125000  0.125000      8.000000
  0.375000  0.125000  0.125000     24.000000
  0.375000  0.375000  0.125000     24.000000
  0.375000  0.375000  0.375000      8.000000
 
 Following cartesian coordinates:
            Coordinates               Weight
  0.008333  0.008333  0.008333      8.000000
  0.025000  0.008333  0.008333     24.000000
  0.025000  0.025000  0.008333     24.000000
  0.025000  0.025000  0.025000      8.000000
 


--------------------------------------------------------------------------------------------------------




 Dimension of arrays:
   k-points           NKPTS =      4   k-points in BZ     NKDIM =      4   number of bands    NBANDS=     16
   number of dos      NEDOS =    301   number of ions     NIONS =      1
   non local maximal  LDIM  =      6   non local SUM 2l+1 LMDIM =     18
   total plane-waves  NPLWV = 262144
   max r-space proj   IRMAX =      1   max aug-charges    IRDMAX=   3489
   dimension x,y,z NGX =    64 NGY =   64 NGZ =   64
   dimension x,y,z NGXF=   128 NGYF=  128 NGZF=  128
   support grid    NGXF=   128 NGYF=  128 NGZF=  128
   ions per type =               1
   NGX,Y,Z   is equivalent  to a cutoff of   7.09,  7.09,  7.09 a.u.
   NGXF,Y,Z  is equivalent  to a cutoff of  14.19, 14.19, 14.19 a.u.

 SYSTEM =  Te                                      
 POSCAR =  O dimer in a box                        

 Startparameter for this run:
   NWRITE =      2    write-flag & timer
   PREC   = normal    normal or accurate (medium, high low for compatibility)
   ISTART =      0    job   : 0-new  1-cont  2-samecut
   ICHARG =      2    charge: 1-file 2-atom 10-const
   ISPIN  =      2    spin polarized calculation?
   LNONCOLLINEAR =      F non collinear calculations
   LSORBIT =      F    spin-orbit coupling
   INIWAV =      1    electr: 0-lowe 1-rand  2-diag
   LASPH  =      F    aspherical Exc in radial PAW
   METAGGA=      F    non-selfconsistent MetaGGA calc.

 Electronic Relaxation 1
   ENCUT  =  293.2 eV  21.55 Ry    4.64 a.u.  20.94 20.94 20.94*2*pi/ulx,y,z
   ENINI  =  293.2     initial cutoff
   ENAUG  =  455.7 eV  augmentation charge cutoff
   NELM   =    250;   NELMIN=  2; NELMDL= -5     # of ELM steps 
   EDIFF  = 0.1E-05   stopping-criterion for ELM
   LREAL  =      F    real-space projection
   NLSPLINE    = F    spline interpolate recip. space projectors
   LCOMPAT=      F    compatible to vasp.4.4
   GGA_COMPAT  = T    GGA compatible to vasp.4.4-vasp.4.6
   LMAXPAW     = -100 max onsite density
   LMAXMIX     =    2 max onsite mixed and CHGCAR
   VOSKOWN=      0    Vosko Wilk Nusair interpolation
   ROPT   =    0.00000
 Ionic relaxation
   EDIFFG = 0.1E-04   stopping-criterion for IOM
   NSW    =    100    number of steps for IOM
   NBLOCK =      1;   KBLOCK =    100    inner block; outer block 
   IBRION =      2    ionic relax: 0-MD 1-quasi-New 2-CG
   NFREE  =      1    steps in history (QN), initial steepest desc. (CG)
   ISIF   =      2    stress and relaxation
   IWAVPR =     11    prediction:  0-non 1-charg 2-wave 3-comb
   ISYM   =      2    0-nonsym 1-usesym 2-fastsym
   LCORR  =      T    Harris-Foulkes like correction to forces

   POTIM  = 0.5000    time-step for ionic-motion
   TEIN   =    0.0    initial temperature
   TEBEG  =    0.0;   TEEND  =   0.0 temperature during run
   SMASS  =  -3.00    Nose mass-parameter (am)
   estimated Nose-frequenzy (Omega)   =  0.10E-29 period in steps =****** mass=  -0.514E-26a.u.
   SCALEE = 1.0000    scale energy and forces
   NPACO  =    256;   APACO  = 16.0  distance and # of slots for P.C.
   PSTRESS=    0.0 pullay stress

  Mass of Ions in am
   POMASS =  92.91
  Ionic Valenz
   ZVAL   =  13.00
  Atomic Wigner-Seitz radii
   RWIGS  =  -1.00
  virtual crystal weights 
   VCA    =   1.00
   NELECT =      13.0000    total number of electrons
   NUPDOWN=      -1.0000    fix difference up-down

 DOS related values:
   EMIN   =  10.00;   EMAX   =-10.00  energy-range for DOS
   EFERMI =   0.00
   ISMEAR =     0;   SIGMA  =   0.20  broadening in eV -4-tet -1-fermi 0-gaus

 Electronic relaxation 2 (details)
   IALGO  =     38    algorithm
   LDIAG  =      T    sub-space diagonalisation (order eigenvalues)
   LSUBROT=      F    optimize rotation matrix (better conditioning)
   TURBO    =      0    0=normal 1=particle mesh
   IRESTART =      0    0=no restart 2=restart with 2 vectors
   NREBOOT  =      0    no. of reboots
   NMIN     =      0    reboot dimension
   EREF     =   0.00    reference energy to select bands
   IMIX   =      4    mixing-type and parameters
     AMIX     =   0.40;   BMIX     =  1.00
     AMIX_MAG =   1.60;   BMIX_MAG =  1.00
     AMIN     =   0.10
     WC   =   100.;   INIMIX=   1;  MIXPRE=   1;  MAXMIX= -45

 Intra band minimization:
   WEIMIN = 0.0010     energy-eigenvalue tresh-hold
   EBREAK =  0.16E-07  absolut break condition
   DEPER  =   0.30     relativ break condition  

   TIME   =   0.40     timestep for ELM

  volume/ion in A,a.u.               =    3375.00     22775.62
  Fermi-wavevector in a.u.,A,eV,Ry     =   0.256624  0.484950  0.896027  0.065856
  Thomas-Fermi vector in A             =   1.080197
 
 Write flags
   LWAVE        =      T    write WAVECAR
   LDOWNSAMPLE  =      F    k-point downsampling of WAVECAR
   LCHARG       =      T    write CHGCAR
   LVTOT        =      F    write LOCPOT, total local potential
   LVHAR        =      F    write LOCPOT, Hartree potential only
   LELF         =      F    write electronic localiz. function (ELF)
   LORBIT       =      0    0 simple, 1 ext, 2 COOP (PROOUT), +10 PAW based schemes


 Dipole corrections
   LMONO  =      F    monopole corrections only (constant potential shift)
   LDIPOL =      F    correct potential (dipole corrections)
   IDIPOL =      0    1-x, 2-y, 3-z, 4-all directions 
   EPSILON=  1.0000000 bulk dielectric constant

 Exchange correlation treatment:
   GGA     =    --    GGA type
   LEXCH   =     8    internal setting for exchange type
   VOSKOWN=      0    Vosko Wilk Nusair interpolation
   LHFCALC =     F    Hartree Fock is set to
   LHFONE  =     F    Hartree Fock one center treatment
   AEXX    =    0.0000 exact exchange contribution

 Linear response parameters
   LEPSILON=     F    determine dielectric tensor
   LRPA    =     F    only Hartree local field effects (RPA)
   LNABLA  =     F    use nabla operator in PAW spheres
   LVEL    =     F    velocity operator in full k-point grid
   LINTERFAST=   F  fast interpolation
   KINTER  =     0    interpolate to denser k-point grid
   CSHIFT  =0.1000    complex shift for real part using Kramers Kronig
   OMEGAMAX=  -1.0    maximum frequency
   DEG_THRESHOLD= 0.2000000E-02 threshold for treating states as degnerate
   RTIME   =   -0.100 relaxation time in fs
  (WPLASMAI=    0.000 imaginary part of plasma frequency in eV, 0.658/RTIME)
   DFIELD  = 0.0000000 0.0000000 0.0000000 field for delta impulse in time
 
 Orbital magnetization related:
   ORBITALMAG=     F  switch on orbital magnetization
   LCHIMAG   =     F  perturbation theory with respect to B field
   DQ        =  0.001000  dq finite difference perturbation B field
   LLRAUG    =     F  two centre corrections for induced B field



--------------------------------------------------------------------------------------------------------


 conjugate gradient relaxation of ions
   using selective dynamics as specified on POSCAR
 charge density and potential will be updated during run
 spin polarized calculation
 Variant of blocked Davidson
 Davidson routine will perform the subspace rotation
 perform sub-space diagonalisation
    after iterative eigenvector-optimisation
 modified Broyden-mixing scheme, WC =      100.0
 initial mixing is a Kerker type mixing with AMIX =  0.4000 and BMIX =      1.0000
 Hartree-type preconditioning will be used
 using additional bands            9
 reciprocal scheme for non local part
 use partial core corrections
 calculate Harris-corrections to forces 
   (improved forces if not selfconsistent)
 use gradient corrections 
 use of overlap-Matrix (Vanderbilt PP)
 Gauss-broadening in eV      SIGMA  =   0.20


--------------------------------------------------------------------------------------------------------


  energy-cutoff  :      293.24
  volume of cell :     3375.00
      direct lattice vectors                 reciprocal lattice vectors
    15.000000000  0.000000000  0.000000000     0.066666667  0.000000000  0.000000000
     0.000000000 15.000000000  0.000000000     0.000000000  0.066666667  0.000000000
     0.000000000  0.000000000 15.000000000     0.000000000  0.000000000  0.066666667

  length of vectors
    15.000000000 15.000000000 15.000000000     0.066666667  0.066666667  0.066666667


 
 k-points in units of 2pi/SCALE and weight: Gamma-point only                        
   0.00833333  0.00833333  0.00833333       0.125
   0.02500000  0.00833333  0.00833333       0.375
   0.02500000  0.02500000  0.00833333       0.375
   0.02500000  0.02500000  0.02500000       0.125
 
 k-points in reciprocal lattice and weights: Gamma-point only                        
   0.12500000  0.12500000  0.12500000       0.125
   0.37500000  0.12500000  0.12500000       0.375
   0.37500000  0.37500000  0.12500000       0.375
   0.37500000  0.37500000  0.37500000       0.125
 
 position of ions in fractional coordinates (direct lattice) 
   0.50000000  0.50000000  0.50000000
 
 position of ions in cartesian coordinates  (Angst):
   7.50000000  7.50000000  7.50000000
 


--------------------------------------------------------------------------------------------------------


 k-point  1 :   0.1250 0.1250 0.1250  plane waves:   38505
 k-point  2 :   0.3750 0.1250 0.1250  plane waves:   38459
 k-point  3 :   0.3750 0.3750 0.1250  plane waves:   38495
 k-point  4 :   0.3750 0.3750 0.3750  plane waves:   38508

 maximum and minimum number of plane-waves per node :     38508    38459

 maximum number of plane-waves:     38508
 maximum index in each direction: 
   IXMAX=   20   IYMAX=   20   IZMAX=   20
   IXMIN=  -21   IYMIN=  -21   IZMIN=  -21


 serial   3D FFT for wavefunctions
 parallel 3D FFT for charge:
    minimum data exchange during FFTs selected (reduces bandwidth)


 total amount of memory used by VASP MPI-rank0    93955. kBytes
=======================================================================

   base      :      30000. kBytes
   nonl-proj :      22799. kBytes
   fftplans  :       5538. kBytes
   grid      :      30654. kBytes
   one-center:         31. kBytes
   wavefun   :       4933. kBytes
 
     INWAV:  cpu time    0.0000: real time    0.0000
 Broyden mixing: mesh for mixing (old mesh)
   NGX = 41   NGY = 41   NGZ = 41
  (NGX  =128   NGY  =128   NGZ  =128)
  gives a total of  68921 points

 initial charge density was supplied:
 charge density of overlapping atoms calculated
 number of electron      13.0000000 magnetization       1.0000000
 keeping initial charge density in first step


--------------------------------------------------------------------------------------------------------


 Maximum index for augmentation-charges          261 (set IRDMAX)


--------------------------------------------------------------------------------------------------------


 First call to EWALD:  gamma=   0.118
 Maximum number of real-space cells 3x 3x 3
 Maximum number of reciprocal cells 3x 3x 3

    FEWALD:  cpu time    0.0009: real time    0.0012


--------------------------------------- Iteration      1(   1)  ---------------------------------------


    POTLOK:  cpu time    0.1296: real time    0.1336
    SETDIJ:  cpu time    0.0043: real time    0.0043
     EDDAV:  cpu time    0.5793: real time    0.6081
       DOS:  cpu time    0.0004: real time    0.0004
    --------------------------------------------
      LOOP:  cpu time    0.7136: real time    0.7464

 eigenvalue-minimisations  :   512
 total energy-change (2. order) : 0.3815461E+02  (-0.4240385E+03)
 number of electron      13.0000000 magnetization       1.0000000
 augmentation part       13.0000000 magnetization       1.0000000

 Free energy of the ion-electron system (eV)
  ---------------------------------------------------
  alpha Z        PSCENC =         0.44164482
  Ewald energy   TEWEN  =      -230.15817073
  -Hartree energ DENC   =     -1059.44423167
  -exchange      EXHF   =         0.00000000
  -V(xc)+E(xc)   XCENC  =        53.57845455
  PAW double counting   =      1233.73161374    -1214.66392001
  entropy T*S    EENTRO =        -0.11908370
  eigenvalues    EBANDS =      -300.33185223
  atomic energy  EATOM  =      1555.12015480
  Solvation  Ediel_sol  =         0.00000000
  ---------------------------------------------------
  free energy    TOTEN  =        38.15460958 eV

  energy without entropy =       38.27369328  energy(sigma->0) =       38.21415143


--------------------------------------------------------------------------------------------------------




--------------------------------------- Iteration      1(   2)  ---------------------------------------


     EDDAV:  cpu time    0.3237: real time    0.3274
       DOS:  cpu time    0.0008: real time    0.0008
    --------------------------------------------
      LOOP:  cpu time    0.3245: real time    0.3282

 eigenvalue-minimisations  :   256
 total energy-change (2. order) :-0.2915190E+02  (-0.2903006E+02)
 number of electron      13.0000000 magnetization       1.0000000
 augmentation part       13.0000000 magnetization       1.0000000

 Free energy of the ion-electron system (eV)
  ---------------------------------------------------
  alpha Z        PSCENC =         0.44164482
  Ewald energy   TEWEN  =      -230.15817073
  -Hartree energ DENC   =     -1059.44423167
  -exchange      EXHF   =         0.00000000
  -V(xc)+E(xc)   XCENC  =        53.57845455
  PAW double counting   =      1233.73161374    -1214.66392001
  entropy T*S    EENTRO =        -0.29170978
  eigenvalues    EBANDS =      -329.31112236
  atomic energy  EATOM  =      1555.12015480
  Solvation  Ediel_sol  =         0.00000000
  ---------------------------------------------------
  free energy    TOTEN  =         9.00271336 eV

  energy without entropy =        9.29442315  energy(sigma->0) =        9.14856825


--------------------------------------------------------------------------------------------------------




--------------------------------------- Iteration      1(   3)  ---------------------------------------


     EDDAV:  cpu time    0.5546: real time    0.5580
       DOS:  cpu time    0.0003: real time    0.0003
    --------------------------------------------
      LOOP:  cpu time    0.5549: real time    0.5583

 eigenvalue-minimisations  :   512
 total energy-change (2. order) :-0.9684403E+01  (-0.9435462E+01)
 number of electron      13.0000000 magnetization       1.0000000
 augmentation part       13.0000000 magnetization       1.0000000

 Free energy of the ion-electron system (eV)
  ---------------------------------------------------
  alpha Z        PSCENC =         0.44164482
  Ewald energy   TEWEN  =      -230.15817073
  -Hartree energ DENC   =     -1059.44423167
  -exchange      EXHF   =         0.00000000
  -V(xc)+E(xc)   XCENC  =        53.57845455
  PAW double counting   =      1233.73161374    -1214.66392001
  entropy T*S    EENTRO =        -0.14442321
  eigenvalues    EBANDS =      -339.14281184
  atomic energy  EATOM  =      1555.12015480
  Solvation  Ediel_sol  =         0.00000000
  ---------------------------------------------------
  free energy    TOTEN  =        -0.68168954 eV

  energy without entropy =       -0.53726633  energy(sigma->0) =       -0.60947793


--------------------------------------------------------------------------------------------------------




--------------------------------------- Iteration      1(   4)  ---------------------------------------


     EDDAV:  cpu time    0.3859: real time    0.3887
       DOS:  cpu time    0.0003: real time    0.0003
    --------------------------------------------
      LOOP:  cpu time    0.3862: real time    0.3890

 eigenvalue-minimisations  :   336
 total energy-change (2. order) :-0.1110024E+01  (-0.9111231E+00)
 number of electron      13.0000000 magnetization       1.0000000
 augmentation part       13.0000000 magnetization       1.0000000

 Free energy of the ion-electron system (eV)
  ---------------------------------------------------
  alpha Z        PSCENC =         0.44164482
  Ewald energy   TEWEN  =      -230.15817073
  -Hartree energ DENC   =     -1059.44423167
  -exchange      EXHF   =         0.00000000
  -V(xc)+E(xc)   XCENC  =        53.57845455
  PAW double counting   =      1233.73161374    -1214.66392001
  entropy T*S    EENTRO =        -0.27155624
  eigenvalues    EBANDS =      -340.12570270
  atomic energy  EATOM  =      1555.12015480
  Solvation  Ediel_sol  =         0.00000000
  ---------------------------------------------------
  free energy    TOTEN  =        -1.79171343 eV

  energy without entropy =       -1.52015719  energy(sigma->0) =       -1.65593531


--------------------------------------------------------------------------------------------------------




--------------------------------------- Iteration      1(   5)  ---------------------------------------


     EDDAV:  cpu time    0.4265: real time    0.4287
       DOS:  cpu time    0.0003: real time    0.0003
    CHARGE:  cpu time    0.0871: real time    0.0907
    MIXING:  cpu time    0.0024: real time    0.0024
    --------------------------------------------
      LOOP:  cpu time    0.5163: real time    0.5222

 eigenvalue-minimisations  :   384
 total energy-change (2. order) :-0.6111682E-01  (-0.5814858E-01)
 number of electron      13.0000021 magnetization       1.4765920
 augmentation part        0.9652094 magnetization      -1.2164037

 Broyden mixing:
  rms(total) = 0.58243E+00    rms(broyden)= 0.58111E+00
  rms(prec ) = 0.61463E+00
  weight for this iteration     100.00

 Free energy of the ion-electron system (eV)
  ---------------------------------------------------
  alpha Z        PSCENC =         0.44164482
  Ewald energy   TEWEN  =      -230.15817073
  -Hartree energ DENC   =     -1059.44423167
  -exchange      EXHF   =         0.00000000
  -V(xc)+E(xc)   XCENC  =        53.57845455
  PAW double counting   =      1233.73161374    -1214.66392001
  entropy T*S    EENTRO =        -0.27440196
  eigenvalues    EBANDS =      -340.18397381
  atomic energy  EATOM  =      1555.12015480
  Solvation  Ediel_sol  =         0.00000000
  ---------------------------------------------------
  free energy    TOTEN  =        -1.85283026 eV

  energy without entropy =       -1.57842830  energy(sigma->0) =       -1.71562928


--------------------------------------------------------------------------------------------------------




--------------------------------------- Iteration      1(   6)  ---------------------------------------


    POTLOK:  cpu time    0.1178: real time    0.1184
    SETDIJ:  cpu time    0.0036: real time    0.0036
     EDDAV:  cpu time    0.3540: real time    0.3584
       DOS:  cpu time    0.0003: real time    0.0003
    CHARGE:  cpu time    0.0842: real time    0.0865
    MIXING:  cpu time    0.0043: real time    0.0092
    --------------------------------------------
      LOOP:  cpu time    0.5641: real time    0.5764

 eigenvalue-minimisations  :   288
 total energy-change (2. order) : 0.2115327E+01  (-0.2100844E+01)
 number of electron      13.0000040 magnetization       1.7329094
 augmentation part        1.8186700 magnetization      -2.1343815

 Broyden mixing:
  rms(total) = 0.74051E+00    rms(broyden)= 0.73824E+00
  rms(prec ) = 0.82248E+00
  weight for this iteration     100.00

 eigenvalues of (default mixing * dielectric matrix)
  average eigenvalue GAMMA=   0.3099
  0.3099

 Free energy of the ion-electron system (eV)
  ---------------------------------------------------
  alpha Z        PSCENC =         0.44164482
  Ewald energy   TEWEN  =      -230.15817073
  -Hartree energ DENC   =     -1046.72108687
  -exchange      EXHF   =         0.00000000
  -V(xc)+E(xc)   XCENC  =        55.74569493
  PAW double counting   =      1216.26309500    -1194.82819040
  entropy T*S    EENTRO =        -0.11924826
  eigenvalues    EBANDS =      -355.48139642
  atomic energy  EATOM  =      1555.12015480
  Solvation  Ediel_sol  =         0.00000000
  ---------------------------------------------------
  free energy    TOTEN  =         0.26249687 eV

  energy without entropy =        0.38174513  energy(sigma->0) =        0.32212100


--------------------------------------------------------------------------------------------------------




--------------------------------------- Iteration      1(   7)  ---------------------------------------


    POTLOK:  cpu time    0.1173: real time    0.1178
    SETDIJ:  cpu time    0.0035: real time    0.0035
     EDDAV:  cpu time    0.4517: real time    0.4578
       DOS:  cpu time    0.0006: real time    0.0006
    CHARGE:  cpu time    0.0815: real time    0.0852
    MIXING:  cpu time    0.0026: real time    0.0039
    --------------------------------------------
      LOOP:  cpu time    0.6571: real time    0.6687

 eigenvalue-minimisations  :   384
 total energy-change (2. order) : 0.2254396E+01  (-0.5695372E-01)
 number of electron      13.0000036 magnetization       1.9333228
 augmentation part        1.5967342 magnetization      -0.7348602

 Broyden mixing:
  rms(total) = 0.35463E+00    rms(broyden)= 0.35402E+00
  rms(prec ) = 0.40885E+00
  weight for this iteration     100.00

 eigenvalues of (default mixing * dielectric matrix)
  average eigenvalue GAMMA=   0.6345
  0.6345  0.6345

 Free energy of the ion-electron system (eV)
  ---------------------------------------------------
  alpha Z        PSCENC =         0.44164482
  Ewald energy   TEWEN  =      -230.15817073
  -Hartree energ DENC   =     -1056.09224960
  -exchange      EXHF   =         0.00000000
  -V(xc)+E(xc)   XCENC  =        58.07762064
  PAW double counting   =      1240.76755646    -1220.20574942
  entropy T*S    EENTRO =        -0.21133259
  eigenvalues    EBANDS =      -345.22258127
  atomic energy  EATOM  =      1555.12015480
  Solvation  Ediel_sol  =         0.00000000
  ---------------------------------------------------
  free energy    TOTEN  =         2.51689312 eV

  energy without entropy =        2.72822571  energy(sigma->0) =        2.62255942


--------------------------------------------------------------------------------------------------------




--------------------------------------- Iteration      1(   8)  ---------------------------------------


    POTLOK:  cpu time    0.1147: real time    0.1153
    SETDIJ:  cpu time    0.0032: real time    0.0032
     EDDAV:  cpu time    0.4277: real time    0.4324
       DOS:  cpu time    0.0003: real time    0.0003
    CHARGE:  cpu time    0.0819: real time    0.0863
    MIXING:  cpu time    0.0026: real time    0.0031
    --------------------------------------------
      LOOP:  cpu time    0.6304: real time    0.6406

 eigenvalue-minimisations  :   384
 total energy-change (2. order) :-0.2027021E+01  (-0.1363596E+00)
 number of electron      13.0000032 magnetization       2.0882108
 augmentation part        1.3390003 magnetization      -0.3372597

 Broyden mixing:
  rms(total) = 0.20721E+00    rms(broyden)= 0.20575E+00
  rms(prec ) = 0.20753E+00
  weight for this iteration     100.00

 eigenvalues of (default mixing * dielectric matrix)
  average eigenvalue GAMMA=   0.6241
  0.7661  0.5531  0.5531

 Free energy of the ion-electron system (eV)
  ---------------------------------------------------
  alpha Z        PSCENC =         0.44164482
  Ewald energy   TEWEN  =      -230.15817073
  -Hartree energ DENC   =     -1064.09712084
  -exchange      EXHF   =         0.00000000
  -V(xc)+E(xc)   XCENC  =        56.51633412
  PAW double counting   =      1253.97214063    -1233.78961168
  entropy T*S    EENTRO =        -0.27076831
  eigenvalues    EBANDS =      -337.24473074
  atomic energy  EATOM  =      1555.12015480
  Solvation  Ediel_sol  =         0.00000000
  ---------------------------------------------------
  free energy    TOTEN  =         0.48987207 eV

  energy without entropy =        0.76064038  energy(sigma->0) =        0.62525622


--------------------------------------------------------------------------------------------------------




--------------------------------------- Iteration      1(   9)  ---------------------------------------


    POTLOK:  cpu time    0.1147: real time    0.1152
    SETDIJ:  cpu time    0.0031: real time    0.0031
     EDDAV:  cpu time    0.4886: real time    0.4917
       DOS:  cpu time    0.0003: real time    0.0003
    CHARGE:  cpu time    0.0869: real time    0.0898
    MIXING:  cpu time    0.0035: real time    0.0036
    --------------------------------------------
      LOOP:  cpu time    0.6972: real time    0.7037

 eigenvalue-minimisations  :   448
 total energy-change (2. order) :-0.3070284E+00  (-0.7460934E-02)
 number of electron      13.0000030 magnetization       2.1477713
 augmentation part        1.2019909 magnetization      -0.4940950

 Broyden mixing:
  rms(total) = 0.20956E+00    rms(broyden)= 0.20790E+00
  rms(prec ) = 0.21366E+00
  weight for this iteration     100.00

 eigenvalues of (default mixing * dielectric matrix)
  average eigenvalue GAMMA=   0.5718
  0.8183  0.4933  0.4879  0.4879

 Free energy of the ion-electron system (eV)
  ---------------------------------------------------
  alpha Z        PSCENC =         0.44164482
  Ewald energy   TEWEN  =      -230.15817073
  -Hartree energ DENC   =     -1065.44792512
  -exchange      EXHF   =         0.00000000
  -V(xc)+E(xc)   XCENC  =        56.36334060
  PAW double counting   =      1268.03854809    -1247.84221128
  entropy T*S    EENTRO =        -0.30799611
  eigenvalues    EBANDS =      -336.02454143
  atomic energy  EATOM  =      1555.12015480
  Solvation  Ediel_sol  =         0.00000000
  ---------------------------------------------------
  free energy    TOTEN  =         0.18284364 eV

  energy without entropy =        0.49083976  energy(sigma->0) =        0.33684170


--------------------------------------------------------------------------------------------------------




--------------------------------------- Iteration      1(  10)  ---------------------------------------


    POTLOK:  cpu time    0.1146: real time    0.1151
    SETDIJ:  cpu time    0.0036: real time    0.0036
     EDDAV:  cpu time    0.4631: real time    0.4649
       DOS:  cpu time    0.0003: real time    0.0003
    CHARGE:  cpu time    0.0887: real time    0.0897
    MIXING:  cpu time    0.0034: real time    0.0034
    --------------------------------------------
      LOOP:  cpu time    0.6737: real time    0.6770

 eigenvalue-minimisations  :   416
 total energy-change (2. order) : 0.1966171E-01  (-0.2409246E-02)
 number of electron      13.0000030 magnetization       2.1182737
 augmentation part        1.2023273 magnetization      -0.6663438

 Broyden mixing:
  rms(total) = 0.19686E+00    rms(broyden)= 0.19661E+00
  rms(prec ) = 0.20174E+00
  weight for this iteration     100.00

 eigenvalues of (default mixing * dielectric matrix)
  average eigenvalue GAMMA=   0.7564
  0.8248  0.8248  0.9745  0.5788  0.5788

 Free energy of the ion-electron system (eV)
  ---------------------------------------------------
  alpha Z        PSCENC =         0.44164482
  Ewald energy   TEWEN  =      -230.15817073
  -Hartree energ DENC   =     -1065.24260349
  -exchange      EXHF   =         0.00000000
  -V(xc)+E(xc)   XCENC  =        56.39511313
  PAW double counting   =      1271.19458971    -1250.86081361
  entropy T*S    EENTRO =        -0.31783780
  eigenvalues    EBANDS =      -336.36957147
  atomic energy  EATOM  =      1555.12015480
  Solvation  Ediel_sol  =         0.00000000
  ---------------------------------------------------
  free energy    TOTEN  =         0.20250536 eV

  energy without entropy =        0.52034316  energy(sigma->0) =        0.36142426


--------------------------------------------------------------------------------------------------------




--------------------------------------- Iteration      1(  11)  ---------------------------------------


    POTLOK:  cpu time    0.1147: real time    0.1153
    SETDIJ:  cpu time    0.0031: real time    0.0031
     EDDAV:  cpu time    0.4016: real time    0.4041
       DOS:  cpu time    0.0004: real time    0.0004
    CHARGE:  cpu time    0.0873: real time    0.0883
    MIXING:  cpu time    0.0031: real time    0.0031
    --------------------------------------------
      LOOP:  cpu time    0.6102: real time    0.6143

 eigenvalue-minimisations  :   352
 total energy-change (2. order) : 0.5676702E-01  (-0.3963757E-03)
 number of electron      13.0000030 magnetization       2.2696286
 augmentation part        1.2183670 magnetization      -0.4321344

 Broyden mixing:
  rms(total) = 0.18384E+00    rms(broyden)= 0.18383E+00
  rms(prec ) = 0.18834E+00
  weight for this iteration     100.00

 eigenvalues of (default mixing * dielectric matrix)
  average eigenvalue GAMMA=   0.7762
  1.1699  0.7097  0.7097  0.7744  0.5170  0.7761

 Free energy of the ion-electron system (eV)
  ---------------------------------------------------
  alpha Z        PSCENC =         0.44164482
  Ewald energy   TEWEN  =      -230.15817073
  -Hartree energ DENC   =     -1065.23749972
  -exchange      EXHF   =         0.00000000
  -V(xc)+E(xc)   XCENC  =        56.41809927
  PAW double counting   =      1270.23836852    -1249.95826150
  entropy T*S    EENTRO =        -0.31243410
  eigenvalues    EBANDS =      -336.29262899
  atomic energy  EATOM  =      1555.12015480
  Solvation  Ediel_sol  =         0.00000000
  ---------------------------------------------------
  free energy    TOTEN  =         0.25927237 eV

  energy without entropy =        0.57170648  energy(sigma->0) =        0.41548943


--------------------------------------------------------------------------------------------------------




--------------------------------------- Iteration      1(  12)  ---------------------------------------


    POTLOK:  cpu time    0.1138: real time    0.1144
    SETDIJ:  cpu time    0.0032: real time    0.0032
     EDDAV:  cpu time    0.4006: real time    0.4020
       DOS:  cpu time    0.0011: real time    0.0011
    CHARGE:  cpu time    0.0876: real time    0.0901
    MIXING:  cpu time    0.0036: real time    0.0036
    --------------------------------------------
      LOOP:  cpu time    0.6098: real time    0.6143

 eigenvalue-minimisations  :   352
 total energy-change (2. order) :-0.5763063E+00  (-0.2405691E-01)
 number of electron      13.0000025 magnetization       2.2600418
 augmentation part        1.1261293 magnetization      -0.8431833

 Broyden mixing:
  rms(total) = 0.29546E+00    rms(broyden)= 0.29526E+00
  rms(prec ) = 0.30439E+00
  weight for this iteration     100.00

 eigenvalues of (default mixing * dielectric matrix)
  average eigenvalue GAMMA=   0.6713
  1.2188  0.6973  0.6973  0.7713  0.5152  0.6520  0.1475

 Free energy of the ion-electron system (eV)
  ---------------------------------------------------
  alpha Z        PSCENC =         0.44164482
  Ewald energy   TEWEN  =      -230.15817073
  -Hartree energ DENC   =     -1065.25474548
  -exchange      EXHF   =         0.00000000
  -V(xc)+E(xc)   XCENC  =        56.00224493
  PAW double counting   =      1280.92017270    -1260.80186494
  entropy T*S    EENTRO =        -0.33174501
  eigenvalues    EBANDS =      -336.25472498
  atomic energy  EATOM  =      1555.12015480
  Solvation  Ediel_sol  =         0.00000000
  ---------------------------------------------------
  free energy    TOTEN  =        -0.31703388 eV

  energy without entropy =        0.01471114  energy(sigma->0) =       -0.15116137


--------------------------------------------------------------------------------------------------------




--------------------------------------- Iteration      1(  13)  ---------------------------------------


    POTLOK:  cpu time    0.1145: real time    0.1150
    SETDIJ:  cpu time    0.0032: real time    0.0032
     EDDAV:  cpu time    0.3842: real time    0.3865
       DOS:  cpu time    0.0003: real time    0.0003
    CHARGE:  cpu time    0.0895: real time    0.0919
    MIXING:  cpu time    0.0036: real time    0.0036
    --------------------------------------------
      LOOP:  cpu time    0.5951: real time    0.6004

 eigenvalue-minimisations  :   336
 total energy-change (2. order) : 0.1783910E-01  (-0.4796561E-03)
 number of electron      13.0000024 magnetization       1.7956411
 augmentation part        1.1284886 magnetization      -1.2728246

 Broyden mixing:
  rms(total) = 0.29394E+00    rms(broyden)= 0.29391E+00
  rms(prec ) = 0.30349E+00
  weight for this iteration     100.00

 eigenvalues of (default mixing * dielectric matrix)
  average eigenvalue GAMMA=   0.8318
  1.1335  1.1335  1.0104  1.0104  0.6861  0.6861  0.4970  0.4970

 Free energy of the ion-electron system (eV)
  ---------------------------------------------------
  alpha Z        PSCENC =         0.44164482
  Ewald energy   TEWEN  =      -230.15817073
  -Hartree energ DENC   =     -1065.25728512
  -exchange      EXHF   =         0.00000000
  -V(xc)+E(xc)   XCENC  =        56.00304822
  PAW double counting   =      1280.42808828    -1260.33773431
  entropy T*S    EENTRO =        -0.33108585
  eigenvalues    EBANDS =      -336.20785491
  atomic energy  EATOM  =      1555.12015480
  Solvation  Ediel_sol  =         0.00000000
  ---------------------------------------------------
  free energy    TOTEN  =        -0.29919478 eV

  energy without entropy =        0.03189106  energy(sigma->0) =       -0.13365186


--------------------------------------------------------------------------------------------------------




--------------------------------------- Iteration      1(  14)  ---------------------------------------


    POTLOK:  cpu time    0.1141: real time    0.1146
    SETDIJ:  cpu time    0.0032: real time    0.0032
     EDDAV:  cpu time    0.3700: real time    0.3714
       DOS:  cpu time    0.0003: real time    0.0003
    CHARGE:  cpu time    0.0909: real time    0.0920
    MIXING:  cpu time    0.0039: real time    0.0039
    --------------------------------------------
      LOOP:  cpu time    0.5823: real time    0.5854

 eigenvalue-minimisations  :   320
 total energy-change (2. order) : 0.1609470E+00  (-0.9118970E-01)
 number of electron      13.0000028 magnetization       1.9121551
 augmentation part        1.3010283 magnetization      -0.5444018

 Broyden mixing:
  rms(total) = 0.33945E+00    rms(broyden)= 0.33779E+00
  rms(prec ) = 0.34045E+00
  weight for this iteration     100.00

 eigenvalues of (default mixing * dielectric matrix)
  average eigenvalue GAMMA=   0.7957
  1.0556  0.9091  0.9091  0.9139  0.9139  0.6714  0.6714  0.6219  0.4952

 Free energy of the ion-electron system (eV)
  ---------------------------------------------------
  alpha Z        PSCENC =         0.44164482
  Ewald energy   TEWEN  =      -230.15817073
  -Hartree energ DENC   =     -1068.30158827
  -exchange      EXHF   =         0.00000000
  -V(xc)+E(xc)   XCENC  =        55.85322903
  PAW double counting   =      1271.85576561    -1252.88325586
  entropy T*S    EENTRO =        -0.28243313
  eigenvalues    EBANDS =      -331.78359411
  atomic energy  EATOM  =      1555.12015480
  Solvation  Ediel_sol  =         0.00000000
  ---------------------------------------------------
  free energy    TOTEN  =        -0.13824783 eV

  energy without entropy =        0.14418530  energy(sigma->0) =        0.00296874


--------------------------------------------------------------------------------------------------------




--------------------------------------- Iteration      1(  15)  ---------------------------------------


    POTLOK:  cpu time    0.1142: real time    0.1147
    SETDIJ:  cpu time    0.0031: real time    0.0031
     EDDAV:  cpu time    0.3109: real time    0.3120
       DOS:  cpu time    0.0003: real time    0.0003
    CHARGE:  cpu time    0.0900: real time    0.0914
    MIXING:  cpu time    0.0055: real time    0.0055
    --------------------------------------------
      LOOP:  cpu time    0.5239: real time    0.5271

 eigenvalue-minimisations  :   256
 total energy-change (2. order) :-0.5043471E+00  (-0.4780048E-01)
 number of electron      13.0000021 magnetization       2.1522951
 augmentation part        1.0921226 magnetization      -0.5163461

 Broyden mixing:
  rms(total) = 0.46359E+00    rms(broyden)= 0.46338E+00
  rms(prec ) = 0.47677E+00
  weight for this iteration     100.00

 eigenvalues of (default mixing * dielectric matrix)
  average eigenvalue GAMMA=   0.8437
  1.0418  1.0418  1.5463  1.1893  0.6661  0.6661  0.5214  0.5891  0.5874  0.5874

 Free energy of the ion-electron system (eV)
  ---------------------------------------------------
  alpha Z        PSCENC =         0.44164482
  Ewald energy   TEWEN  =      -230.15817073
  -Hartree energ DENC   =     -1066.79149847
  -exchange      EXHF   =         0.00000000
  -V(xc)+E(xc)   XCENC  =        55.58355250
  PAW double counting   =      1272.09163072    -1252.68925211
  entropy T*S    EENTRO =        -0.30540004
  eigenvalues    EBANDS =      -333.93525644
  atomic energy  EATOM  =      1555.12015480
  Solvation  Ediel_sol  =         0.00000000
  ---------------------------------------------------
  free energy    TOTEN  =        -0.64259494 eV

  energy without entropy =       -0.33719490  energy(sigma->0) =       -0.48989492


--------------------------------------------------------------------------------------------------------




--------------------------------------- Iteration      1(  16)  ---------------------------------------


    POTLOK:  cpu time    0.1144: real time    0.1150
    SETDIJ:  cpu time    0.0031: real time    0.0031
     EDDAV:  cpu time    0.4099: real time    0.4125
       DOS:  cpu time    0.0003: real time    0.0003
    CHARGE:  cpu time    0.0871: real time    0.0887
    MIXING:  cpu time    0.0047: real time    0.0050
    --------------------------------------------
      LOOP:  cpu time    0.6196: real time    0.6246

 eigenvalue-minimisations  :   352
 total energy-change (2. order) :-0.5235116E+00  (-0.3540891E-01)
 number of electron      13.0000022 magnetization       2.0697558
 augmentation part        0.9697163 magnetization      -0.7234910

 Broyden mixing:
  rms(total) = 0.58225E+00    rms(broyden)= 0.58175E+00
  rms(prec ) = 0.61664E+00
  weight for this iteration     100.00

 eigenvalues of (default mixing * dielectric matrix)
  average eigenvalue GAMMA=   0.9190
  1.7538  1.0724  1.4993  1.4993  0.6997  0.6997  0.6337  0.6337  0.6931  0.4621
  0.4621

 Free energy of the ion-electron system (eV)
  ---------------------------------------------------
  alpha Z        PSCENC =         0.44164482
  Ewald energy   TEWEN  =      -230.15817073
  -Hartree energ DENC   =     -1069.99794108
  -exchange      EXHF   =         0.00000000
  -V(xc)+E(xc)   XCENC  =        55.54432766
  PAW double counting   =      1288.38698126    -1269.55335696
  entropy T*S    EENTRO =        -0.27822181
  eigenvalues    EBANDS =      -330.67152455
  atomic energy  EATOM  =      1555.12015480
  Solvation  Ediel_sol  =         0.00000000
  ---------------------------------------------------
  free energy    TOTEN  =        -1.16610658 eV

  energy without entropy =       -0.88788477  energy(sigma->0) =       -1.02699567


--------------------------------------------------------------------------------------------------------




--------------------------------------- Iteration      1(  17)  ---------------------------------------


    POTLOK:  cpu time    0.1151: real time    0.1156
    SETDIJ:  cpu time    0.0034: real time    0.0034
     EDDAV:  cpu time    0.3134: real time    0.3147
       DOS:  cpu time    0.0003: real time    0.0003
    CHARGE:  cpu time    0.0854: real time    0.0868
    MIXING:  cpu time    0.0047: real time    0.0047
    --------------------------------------------
      LOOP:  cpu time    0.5223: real time    0.5255

 eigenvalue-minimisations  :   256
 total energy-change (2. order) : 0.3200429E-02  (-0.1408732E-01)
 number of electron      13.0000022 magnetization       2.0268830
 augmentation part        0.9718886 magnetization      -0.7628336

 Broyden mixing:
  rms(total) = 0.67137E+00    rms(broyden)= 0.67135E+00
  rms(prec ) = 0.70510E+00
  weight for this iteration     100.00

 eigenvalues of (default mixing * dielectric matrix)
  average eigenvalue GAMMA=   0.9298
  2.1109  1.6477  1.6477  1.0334  0.7273  0.7273  0.7086  0.6323  0.6323  0.4767
  0.4067  0.4067

 Free energy of the ion-electron system (eV)
  ---------------------------------------------------
  alpha Z        PSCENC =         0.44164482
  Ewald energy   TEWEN  =      -230.15817073
  -Hartree energ DENC   =     -1070.01763675
  -exchange      EXHF   =         0.00000000
  -V(xc)+E(xc)   XCENC  =        55.55888859
  PAW double counting   =      1287.51760458    -1269.73223137
  entropy T*S    EENTRO =        -0.27590208
  eigenvalues    EBANDS =      -329.61725801
  atomic energy  EATOM  =      1555.12015480
  Solvation  Ediel_sol  =         0.00000000
  ---------------------------------------------------
  free energy    TOTEN  =        -1.16290615 eV

  energy without entropy =       -0.88700406  energy(sigma->0) =       -1.02495510


--------------------------------------------------------------------------------------------------------




--------------------------------------- Iteration      1(  18)  ---------------------------------------


    POTLOK:  cpu time    0.1142: real time    0.1149
    SETDIJ:  cpu time    0.0033: real time    0.0033
     EDDAV:  cpu time    0.3098: real time    0.3111
       DOS:  cpu time    0.0003: real time    0.0003
    CHARGE:  cpu time    0.0856: real time    0.0871
    MIXING:  cpu time    0.0047: real time    0.0047
    --------------------------------------------
      LOOP:  cpu time    0.5179: real time    0.5215

 eigenvalue-minimisations  :   256
 total energy-change (2. order) : 0.8007934E-01  (-0.3008904E-02)
 number of electron      13.0000020 magnetization       2.0281706
 augmentation part        0.9759145 magnetization      -0.7580198

 Broyden mixing:
  rms(total) = 0.70031E+00    rms(broyden)= 0.70028E+00
  rms(prec ) = 0.73361E+00
  weight for this iteration     100.00

 eigenvalues of (default mixing * dielectric matrix)
  average eigenvalue GAMMA=   0.9712
  2.0543  2.0543  1.0497  1.3693  1.3693  0.6294  0.6294  0.7486  0.5799  0.5799
  0.4941  0.5339  0.5339

 Free energy of the ion-electron system (eV)
  ---------------------------------------------------
  alpha Z        PSCENC =         0.44164482
  Ewald energy   TEWEN  =      -230.15817073
  -Hartree energ DENC   =     -1069.60083428
  -exchange      EXHF   =         0.00000000
  -V(xc)+E(xc)   XCENC  =        55.56483577
  PAW double counting   =      1283.36811794    -1266.16746205
  entropy T*S    EENTRO =        -0.27651952
  eigenvalues    EBANDS =      -329.37459356
  atomic energy  EATOM  =      1555.12015480
  Solvation  Ediel_sol  =         0.00000000
  ---------------------------------------------------
  free energy    TOTEN  =        -1.08282680 eV

  energy without entropy =       -0.80630728  energy(sigma->0) =       -0.94456704


--------------------------------------------------------------------------------------------------------




--------------------------------------- Iteration      1(  19)  ---------------------------------------


    POTLOK:  cpu time    0.1138: real time    0.1144
    SETDIJ:  cpu time    0.0031: real time    0.0031
     EDDAV:  cpu time    0.4451: real time    0.4474
       DOS:  cpu time    0.0010: real time    0.0010
    CHARGE:  cpu time    0.0846: real time    0.0856
    MIXING:  cpu time    0.0049: real time    0.0049
    --------------------------------------------
      LOOP:  cpu time    0.6525: real time    0.6564

 eigenvalue-minimisations  :   400
 total energy-change (2. order) :-0.1520758E-01  (-0.3644607E-03)
 number of electron      13.0000020 magnetization       1.5155560
 augmentation part        0.9779818 magnetization      -1.2695152

 Broyden mixing:
  rms(total) = 0.70265E+00    rms(broyden)= 0.70264E+00
  rms(prec ) = 0.73632E+00
  weight for this iteration     100.00

 eigenvalues of (default mixing * dielectric matrix)
  average eigenvalue GAMMA=   0.9131
  1.7811  1.7811  1.1745  1.3125  1.3125  0.7408  0.7408  0.7436  0.6238  0.6238
  0.5040  0.5040  0.4705  0.4705

 Free energy of the ion-electron system (eV)
  ---------------------------------------------------
  alpha Z        PSCENC =         0.44164482
  Ewald energy   TEWEN  =      -230.15817073
  -Hartree energ DENC   =     -1069.70838932
  -exchange      EXHF   =         0.00000000
  -V(xc)+E(xc)   XCENC  =        55.54922222
  PAW double counting   =      1283.70000752    -1266.57844932
  entropy T*S    EENTRO =        -0.27643399
  eigenvalues    EBANDS =      -329.18762040
  atomic energy  EATOM  =      1555.12015480
  Solvation  Ediel_sol  =         0.00000000
  ---------------------------------------------------
  free energy    TOTEN  =        -1.09803439 eV

  energy without entropy =       -0.82160040  energy(sigma->0) =       -0.95981739


--------------------------------------------------------------------------------------------------------




--------------------------------------- Iteration      1(  20)  ---------------------------------------


    POTLOK:  cpu time    0.1143: real time    0.1149
    SETDIJ:  cpu time    0.0032: real time    0.0032
     EDDAV:  cpu time    0.4295: real time    0.4322
       DOS:  cpu time    0.0005: real time    0.0005
    CHARGE:  cpu time    0.0856: real time    0.0866
    MIXING:  cpu time    0.0056: real time    0.0056
    --------------------------------------------
      LOOP:  cpu time    0.6387: real time    0.6430

 eigenvalue-minimisations  :   384
 total energy-change (2. order) : 0.2261261E+01  (-0.1418511E+01)
 number of electron      13.0000028 magnetization       1.5844209
 augmentation part        1.5011348 magnetization      -0.6641588

 Broyden mixing:
  rms(total) = 0.51670E+00    rms(broyden)= 0.51208E+00
  rms(prec ) = 0.51689E+00
  weight for this iteration     100.00

 eigenvalues of (default mixing * dielectric matrix)
  average eigenvalue GAMMA=   0.8988
  2.2278  1.2084  1.2084  1.4949  1.4949  0.8056  0.8056  0.7045  0.6117  0.6117
  0.5362  0.5362  0.4743  0.4743  0.2880

 Free energy of the ion-electron system (eV)
  ---------------------------------------------------
  alpha Z        PSCENC =         0.44164482
  Ewald energy   TEWEN  =      -230.15817073
  -Hartree energ DENC   =     -1069.24431972
  -exchange      EXHF   =         0.00000000
  -V(xc)+E(xc)   XCENC  =        56.25729744
  PAW double counting   =      1256.71166938    -1241.28705584
  entropy T*S    EENTRO =        -0.18783469
  eigenvalues    EBANDS =      -326.49015889
  atomic energy  EATOM  =      1555.12015480
  Solvation  Ediel_sol  =         0.00000000
  ---------------------------------------------------
  free energy    TOTEN  =         1.16322657 eV

  energy without entropy =        1.35106127  energy(sigma->0) =        1.25714392


--------------------------------------------------------------------------------------------------------




--------------------------------------- Iteration      1(  21)  ---------------------------------------


    POTLOK:  cpu time    0.1140: real time    0.1146
    SETDIJ:  cpu time    0.0032: real time    0.0032
     EDDAV:  cpu time    0.4123: real time    0.4138
       DOS:  cpu time    0.0003: real time    0.0003
    CHARGE:  cpu time    0.0904: real time    0.0919
    MIXING:  cpu time    0.0056: real time    0.0056
    --------------------------------------------
      LOOP:  cpu time    0.6258: real time    0.6294

 eigenvalue-minimisations  :   368
 total energy-change (2. order) : 0.2258662E+00  (-0.3551284E-01)
 number of electron      13.0000031 magnetization       1.5455272
 augmentation part        1.5016589 magnetization      -0.7074494

 Broyden mixing:
  rms(total) = 0.52409E+00    rms(broyden)= 0.52405E+00
  rms(prec ) = 0.52756E+00
  weight for this iteration     100.00

 eigenvalues of (default mixing * dielectric matrix)
  average eigenvalue GAMMA=   0.9282
  2.5672  1.1693  1.1693  1.5353  1.5353  0.8794  0.8794  0.5457  0.5457  0.6893
  0.6428  0.6428  0.5010  0.5010  0.5237  0.5237

 Free energy of the ion-electron system (eV)
  ---------------------------------------------------
  alpha Z        PSCENC =         0.44164482
  Ewald energy   TEWEN  =      -230.15817073
  -Hartree energ DENC   =     -1073.06089865
  -exchange      EXHF   =         0.00000000
  -V(xc)+E(xc)   XCENC  =        56.36589693
  PAW double counting   =      1272.13963294    -1257.80467591
  entropy T*S    EENTRO =        -0.19561352
  eigenvalues    EBANDS =      -321.45887788
  atomic energy  EATOM  =      1555.12015480
  Solvation  Ediel_sol  =         0.00000000
  ---------------------------------------------------
  free energy    TOTEN  =         1.38909281 eV

  energy without entropy =        1.58470633  energy(sigma->0) =        1.48689957


--------------------------------------------------------------------------------------------------------




--------------------------------------- Iteration      1(  22)  ---------------------------------------


    POTLOK:  cpu time    0.1141: real time    0.1148
    SETDIJ:  cpu time    0.0031: real time    0.0031
     EDDAV:  cpu time    0.3404: real time    0.3429
       DOS:  cpu time    0.0007: real time    0.0007
    CHARGE:  cpu time    0.0897: real time    0.0914
    MIXING:  cpu time    0.0059: real time    0.0059
    --------------------------------------------
      LOOP:  cpu time    0.5539: real time    0.5588

 eigenvalue-minimisations  :   288
 total energy-change (2. order) : 0.1077493E+01  (-0.5265998E-01)
 number of electron      13.0000030 magnetization       1.5095036
 augmentation part        1.5122002 magnetization      -0.7377247

 Broyden mixing:
  rms(total) = 0.53323E+00    rms(broyden)= 0.53320E+00
  rms(prec ) = 0.53721E+00
  weight for this iteration     100.00

 eigenvalues of (default mixing * dielectric matrix)
  average eigenvalue GAMMA=   0.9535
  2.9419  1.1334  1.1334  1.7333  1.7333  0.8725  0.8725  0.5926  0.5926  0.5738
  0.5738  0.6762  0.6762  0.6902  0.5228  0.5228  0.3690

 Free energy of the ion-electron system (eV)
  ---------------------------------------------------
  alpha Z        PSCENC =         0.44164482
  Ewald energy   TEWEN  =      -230.15817073
  -Hartree energ DENC   =     -1076.15293185
  -exchange      EXHF   =         0.00000000
  -V(xc)+E(xc)   XCENC  =        57.05431139
  PAW double counting   =      1287.60640556    -1273.86494704
  entropy T*S    EENTRO =        -0.19288227
  eigenvalues    EBANDS =      -317.38699928
  atomic energy  EATOM  =      1555.12015480
  Solvation  Ediel_sol  =         0.00000000
  ---------------------------------------------------
  free energy    TOTEN  =         2.46658539 eV

  energy without entropy =        2.65946766  energy(sigma->0) =        2.56302653


--------------------------------------------------------------------------------------------------------




--------------------------------------- Iteration      1(  23)  ---------------------------------------


    POTLOK:  cpu time    0.1145: real time    0.1151
    SETDIJ:  cpu time    0.0031: real time    0.0031
     EDDAV:  cpu time    0.4954: real time    0.4998
       DOS:  cpu time    0.0003: real time    0.0003
    CHARGE:  cpu time    0.0921: real time    0.0932
    MIXING:  cpu time    0.0073: real time    0.0073
    --------------------------------------------
      LOOP:  cpu time    0.7125: real time    0.7188

 eigenvalue-minimisations  :   432
 total energy-change (2. order) : 0.6564767E+00  (-0.1740733E-01)
 number of electron      13.0000029 magnetization       1.6977700
 augmentation part        1.5250699 magnetization      -0.5500027

 Broyden mixing:
  rms(total) = 0.55959E+00    rms(broyden)= 0.55957E+00
  rms(prec ) = 0.56369E+00
  weight for this iteration     100.00

 eigenvalues of (default mixing * dielectric matrix)
  average eigenvalue GAMMA=   0.9962
  2.7162  2.1102  2.1102  1.1508  1.0815  1.0815  0.8414  0.8414  0.7572  0.7572
  0.5461  0.5461  0.5810  0.5810  0.6798  0.5754  0.4876  0.4876

 Free energy of the ion-electron system (eV)
  ---------------------------------------------------
  alpha Z        PSCENC =         0.44164482
  Ewald energy   TEWEN  =      -230.15817073
  -Hartree energ DENC   =     -1077.52247651
  -exchange      EXHF   =         0.00000000
  -V(xc)+E(xc)   XCENC  =        57.45984894
  PAW double counting   =      1292.22136125    -1278.78664868
  entropy T*S    EENTRO =        -0.19195454
  eigenvalues    EBANDS =      -315.46069726
  atomic energy  EATOM  =      1555.12015480
  Solvation  Ediel_sol  =         0.00000000
  ---------------------------------------------------
  free energy    TOTEN  =         3.12306211 eV

  energy without entropy =        3.31501665  energy(sigma->0) =        3.21903938


--------------------------------------------------------------------------------------------------------




--------------------------------------- Iteration      1(  24)  ---------------------------------------


    POTLOK:  cpu time    0.1156: real time    0.1161
    SETDIJ:  cpu time    0.0038: real time    0.0038
     EDDAV:  cpu time    0.3157: real time    0.3169
       DOS:  cpu time    0.0003: real time    0.0003
    CHARGE:  cpu time    0.0896: real time    0.0910
    MIXING:  cpu time    0.0065: real time    0.0066
    --------------------------------------------
      LOOP:  cpu time    0.5315: real time    0.5346

 eigenvalue-minimisations  :   256
 total energy-change (2. order) :-0.1623836E+01  (-0.1092693E+00)
 number of electron      13.0000030 magnetization       2.0008891
 augmentation part        1.5132236 magnetization      -0.2641008

 Broyden mixing:
  rms(total) = 0.61787E+00    rms(broyden)= 0.61787E+00
  rms(prec ) = 0.62120E+00
  weight for this iteration     100.00

 eigenvalues of (default mixing * dielectric matrix)
  average eigenvalue GAMMA=   1.0323
  2.2678  2.2678  2.0669  2.0669  1.2820  1.2820  0.9861  0.9861  0.5404  0.5404
  0.8251  0.5865  0.5865  0.7019  0.7019  0.5458  0.5458  0.4170  0.4170

 Free energy of the ion-electron system (eV)
  ---------------------------------------------------
  alpha Z        PSCENC =         0.44164482
  Ewald energy   TEWEN  =      -230.15817073
  -Hartree energ DENC   =     -1073.80065818
  -exchange      EXHF   =         0.00000000
  -V(xc)+E(xc)   XCENC  =        56.50784068
  PAW double counting   =      1275.19030822    -1262.43595063
  entropy T*S    EENTRO =        -0.19177651
  eigenvalues    EBANDS =      -319.17416665
  atomic energy  EATOM  =      1555.12015480
  Solvation  Ediel_sol  =         0.00000000
  ---------------------------------------------------
  free energy    TOTEN  =         1.49922582 eV

  energy without entropy =        1.69100233  energy(sigma->0) =        1.59511408


--------------------------------------------------------------------------------------------------------




--------------------------------------- Iteration      1(  25)  ---------------------------------------


    POTLOK:  cpu time    0.1137: real time    0.1142
    SETDIJ:  cpu time    0.0033: real time    0.0033
     EDDAV:  cpu time    0.5030: real time    0.5057
       DOS:  cpu time    0.0003: real time    0.0003
    CHARGE:  cpu time    0.0879: real time    0.0891
    MIXING:  cpu time    0.0074: real time    0.0074
    --------------------------------------------
      LOOP:  cpu time    0.7155: real time    0.7199

 eigenvalue-minimisations  :   464
 total energy-change (2. order) :-0.1991632E+01  (-0.1938396E+00)
 number of electron      13.0000033 magnetization       2.1497422
 augmentation part        1.4684140 magnetization      -0.1382649

 Broyden mixing:
  rms(total) = 0.52413E+00    rms(broyden)= 0.52377E+00
  rms(prec ) = 0.52666E+00
  weight for this iteration     100.00

 eigenvalues of (default mixing * dielectric matrix)
  average eigenvalue GAMMA=   1.0117
  2.5125  2.5125  2.0480  2.0480  1.2517  1.2517  0.9973  0.9973  0.5400  0.5400
  0.8008  0.7207  0.7207  0.5894  0.5894  0.5411  0.5411  0.4367  0.2976  0.2976

 Free energy of the ion-electron system (eV)
  ---------------------------------------------------
  alpha Z        PSCENC =         0.44164482
  Ewald energy   TEWEN  =      -230.15817073
  -Hartree energ DENC   =     -1065.63791608
  -exchange      EXHF   =         0.00000000
  -V(xc)+E(xc)   XCENC  =        55.17274497
  PAW double counting   =      1251.33027974    -1237.18683808
  entropy T*S    EENTRO =        -0.21613620
  eigenvalues    EBANDS =      -329.35816912
  atomic energy  EATOM  =      1555.12015480
  Solvation  Ediel_sol  =         0.00000000
  ---------------------------------------------------
  free energy    TOTEN  =        -0.49240587 eV

  energy without entropy =       -0.27626967  energy(sigma->0) =       -0.38433777


--------------------------------------------------------------------------------------------------------




--------------------------------------- Iteration      1(  26)  ---------------------------------------


    POTLOK:  cpu time    0.1143: real time    0.1148
    SETDIJ:  cpu time    0.0031: real time    0.0031
     EDDAV:  cpu time    0.5059: real time    0.5078
       DOS:  cpu time    0.0003: real time    0.0003
    CHARGE:  cpu time    0.0865: real time    0.0882
    MIXING:  cpu time    0.0074: real time    0.0076
    --------------------------------------------
      LOOP:  cpu time    0.7174: real time    0.7218

 eigenvalue-minimisations  :   464
 total energy-change (2. order) :-0.6751992E+00  (-0.5507872E-01)
 number of electron      13.0000029 magnetization       2.1446243
 augmentation part        1.2125924 magnetization      -0.3793881

 Broyden mixing:
  rms(total) = 0.65894E+00    rms(broyden)= 0.65784E+00
  rms(prec ) = 0.66439E+00
  weight for this iteration     100.00

 eigenvalues of (default mixing * dielectric matrix)
  average eigenvalue GAMMA=   0.9916
  2.6245  2.6245  2.0602  2.0602  1.2449  1.2449  0.9897  0.9897  0.7956  0.7227
  0.7227  0.5396  0.5396  0.5886  0.5886  0.5417  0.5417  0.4071  0.4071  0.2954
  0.2954

 Free energy of the ion-electron system (eV)
  ---------------------------------------------------
  alpha Z        PSCENC =         0.44164482
  Ewald energy   TEWEN  =      -230.15817073
  -Hartree energ DENC   =     -1060.60801044
  -exchange      EXHF   =         0.00000000
  -V(xc)+E(xc)   XCENC  =        54.71178478
  PAW double counting   =      1231.24733456    -1216.46848531
  entropy T*S    EENTRO =        -0.30284074
  eigenvalues    EBANDS =      -335.15101679
  atomic energy  EATOM  =      1555.12015480
  Solvation  Ediel_sol  =         0.00000000
  ---------------------------------------------------
  free energy    TOTEN  =        -1.16760505 eV

  energy without entropy =       -0.86476431  energy(sigma->0) =       -1.01618468


--------------------------------------------------------------------------------------------------------




--------------------------------------- Iteration      1(  27)  ---------------------------------------


    POTLOK:  cpu time    0.1144: real time    0.1150
    SETDIJ:  cpu time    0.0031: real time    0.0031
     EDDAV:  cpu time    0.3840: real time    0.3857
       DOS:  cpu time    0.0003: real time    0.0003
    CHARGE:  cpu time    0.0875: real time    0.0889
    MIXING:  cpu time    0.0074: real time    0.0075
    --------------------------------------------
      LOOP:  cpu time    0.5968: real time    0.6005

 eigenvalue-minimisations  :   336
 total energy-change (2. order) : 0.2796621E-01  (-0.3230878E-02)
 number of electron      13.0000029 magnetization       2.1122896
 augmentation part        1.1869761 magnetization      -0.4352330

 Broyden mixing:
  rms(total) = 0.67693E+00    rms(broyden)= 0.67684E+00
  rms(prec ) = 0.68458E+00
  weight for this iteration     100.00

 eigenvalues of (default mixing * dielectric matrix)
  average eigenvalue GAMMA=   0.9599
  2.5043  2.5043  2.0500  2.0500  1.2590  1.2590  0.9944  0.9944  0.8086  0.7226
  0.7226  0.5397  0.5397  0.5892  0.5892  0.5426  0.5426  0.4209  0.4209  0.3617
  0.3617  0.3405

 Free energy of the ion-electron system (eV)
  ---------------------------------------------------
  alpha Z        PSCENC =         0.44164482
  Ewald energy   TEWEN  =      -230.15817073
  -Hartree energ DENC   =     -1061.03110858
  -exchange      EXHF   =         0.00000000
  -V(xc)+E(xc)   XCENC  =        54.76989835
  PAW double counting   =      1233.87040185    -1219.11881862
  entropy T*S    EENTRO =        -0.30505940
  eigenvalues    EBANDS =      -334.72858132
  atomic energy  EATOM  =      1555.12015480
  Solvation  Ediel_sol  =         0.00000000
  ---------------------------------------------------
  free energy    TOTEN  =        -1.13963884 eV

  energy without entropy =       -0.83457944  energy(sigma->0) =       -0.98710914


--------------------------------------------------------------------------------------------------------




--------------------------------------- Iteration      1(  28)  ---------------------------------------


    POTLOK:  cpu time    0.1148: real time    0.1153
    SETDIJ:  cpu time    0.0031: real time    0.0031
     EDDAV:  cpu time    0.3675: real time    0.3689
       DOS:  cpu time    0.0003: real time    0.0003
    CHARGE:  cpu time    0.0869: real time    0.0891
    MIXING:  cpu time    0.0078: real time    0.0078
    --------------------------------------------
      LOOP:  cpu time    0.5804: real time    0.5845

 eigenvalue-minimisations  :   320
 total energy-change (2. order) : 0.1635749E+00  (-0.2029776E-02)
 number of electron      13.0000029 magnetization       2.0923006
 augmentation part        1.2823000 magnetization      -0.3592605

 Broyden mixing:
  rms(total) = 0.60061E+00    rms(broyden)= 0.60046E+00
  rms(prec ) = 0.60466E+00
  weight for this iteration     100.00

 eigenvalues of (default mixing * dielectric matrix)
  average eigenvalue GAMMA=   0.9701
  2.1187  2.1187  1.8680  1.9667  1.9667  1.1722  1.1722  1.0418  1.0418  0.7622
  0.7404  0.7404  0.5400  0.5400  0.5764  0.5764  0.5653  0.5653  0.5421  0.5421
  0.4344  0.4344  0.2869

 Free energy of the ion-electron system (eV)
  ---------------------------------------------------
  alpha Z        PSCENC =         0.44164482
  Ewald energy   TEWEN  =      -230.15817073
  -Hartree energ DENC   =     -1060.20016777
  -exchange      EXHF   =         0.00000000
  -V(xc)+E(xc)   XCENC  =        54.81354522
  PAW double counting   =      1233.04076347    -1218.16546045
  entropy T*S    EENTRO =        -0.29021501
  eigenvalues    EBANDS =      -335.57815830
  atomic energy  EATOM  =      1555.12015480
  Solvation  Ediel_sol  =         0.00000000
  ---------------------------------------------------
  free energy    TOTEN  =        -0.97606395 eV

  energy without entropy =       -0.68584894  energy(sigma->0) =       -0.83095645


--------------------------------------------------------------------------------------------------------




--------------------------------------- Iteration      1(  29)  ---------------------------------------


    POTLOK:  cpu time    0.1146: real time    0.1152
    SETDIJ:  cpu time    0.0033: real time    0.0033
     EDDAV:  cpu time    0.3541: real time    0.3555
       DOS:  cpu time    0.0004: real time    0.0004
    CHARGE:  cpu time    0.0886: real time    0.0901
    MIXING:  cpu time    0.0081: real time    0.0081
    --------------------------------------------
      LOOP:  cpu time    0.5691: real time    0.5724

 eigenvalue-minimisations  :   304
 total energy-change (2. order) :-0.1099396E+00  (-0.1773347E-02)
 number of electron      13.0000029 magnetization       2.0336897
 augmentation part        1.2985138 magnetization      -0.4022265

 Broyden mixing:
[...]




--------------------------------------- Iteration      1( 188)  ---------------------------------------


    POTLOK:  cpu time    0.1150: real time    0.1155
    SETDIJ:  cpu time    0.0031: real time    0.0031
     EDDAV:  cpu time    0.3981: real time    0.3995
       DOS:  cpu time    0.0003: real time    0.0003
    --------------------------------------------
      LOOP:  cpu time    0.5165: real time    0.5184

 eigenvalue-minimisations  :   352
 total energy-change (2. order) :-0.7492240E-06  (-0.5083332E-07)
 number of electron      13.0000032 magnetization       4.9999897
 augmentation part        1.3745034 magnetization       0.0356054

 Free energy of the ion-electron system (eV)
  ---------------------------------------------------
  alpha Z        PSCENC =         0.44164482
  Ewald energy   TEWEN  =      -230.15817073
  -Hartree energ DENC   =     -1066.34078991
  -exchange      EXHF   =         0.00000000
  -V(xc)+E(xc)   XCENC  =        55.00606507
  PAW double counting   =      1318.37876722    -1299.10985060
  entropy T*S    EENTRO =        -0.19712695
  eigenvalues    EBANDS =      -336.45866616
  atomic energy  EATOM  =      1555.12015480
  Solvation  Ediel_sol  =         0.00000000
  ---------------------------------------------------
  free energy    TOTEN  =        -3.31797244 eV

  energy without entropy =       -3.12084549  energy(sigma->0) =       -3.21940896


--------------------------------------------------------------------------------------------------------




 average (electrostatic) potential at core
  the test charge radii are     1.0703
  (the norm of the test charge is              1.0000)
       1 -91.3946
 
 
 
 E-fermi :  -3.5063     XC(G=0):  -0.2935     alpha+bet : -0.1028


 spin component 1

 k-point     1 :       0.1250    0.1250    0.1250
  band No.  band energies     occupation 
      1     -58.5639      1.00000
      2     -34.8517      1.00000
      3     -34.8517      1.00000
      4     -34.8517      1.00000
      5      -4.3556      1.00000
      6      -3.6420      0.83127
      7      -3.6420      0.83127
      8      -3.6152      0.77928
      9      -3.6152      0.77923
     10      -3.6152      0.77923
     11      -1.2677      0.00000
     12      -1.2676      0.00000
     13      -1.2676      0.00000
     14      -0.1189      0.00000
     15       0.4487      0.00000
     16       0.4535      0.00000

 k-point     2 :       0.3750    0.1250    0.1250
  band No.  band energies     occupation 
      1     -58.5639      1.00000
      2     -34.8517      1.00000
      3     -34.8516      1.00000
      4     -34.8516      1.00000
      5      -4.3556      1.00000
      6      -3.6420      0.83132
      7      -3.6419      0.83120
      8      -3.6151      0.77913
      9      -3.6151      0.77909
     10      -3.6151      0.77904
     11      -1.2723      0.00000
     12      -1.2672      0.00000
     13      -1.2672      0.00000
     14      -0.0377      0.00000
     15       0.2387      0.00000
     16       0.5040      0.00000

 k-point     3 :       0.3750    0.3750    0.1250
  band No.  band energies     occupation 
      1     -58.5639      1.00000
      2     -34.8517      1.00000
      3     -34.8517      1.00000
      4     -34.8517      1.00000
      5      -4.3556      1.00000
      6      -3.6420      0.83139
      7      -3.6420      0.83133
      8      -3.6151      0.77916
      9      -3.6151      0.77911
     10      -3.6151      0.77906
     11      -1.2718      0.00000
     12      -1.2717      0.00000
     13      -1.2668      0.00000
     14       0.0461      0.00000
     15       0.2708      0.00000
     16       0.3609      0.00000

 k-point     4 :       0.3750    0.3750    0.3750
  band No.  band energies     occupation 
      1     -58.5639      1.00000
      2     -34.8517      1.00000
      3     -34.8517      1.00000
      4     -34.8517      1.00000
      5      -4.3556      1.00000
      6      -3.6420      0.83140
      7      -3.6420      0.83140
      8      -3.6151      0.77920
      9      -3.6151      0.77910
     10      -3.6151      0.77910
     11      -1.2713      0.00000
     12      -1.2712      0.00000
     13      -1.2712      0.00000
     14       0.1359      0.00000
     15       0.3270      0.00000
     16       0.3966      0.00000

 spin component 2

 k-point     1 :       0.1250    0.1250    0.1250
  band No.  band energies     occupation 
      1     -56.6274      1.00000
      2     -32.6172      1.00000
      3     -32.6172      1.00000
      4     -32.6172      1.00000
      5      -1.6621      0.00000
      6      -0.9026      0.00000
      7      -0.9026      0.00000
      8      -0.9026      0.00000
      9      -0.8425      0.00000
     10      -0.8425      0.00000
     11       0.1730      0.00000
     12       0.5611      0.00000
     13       0.5611      0.00000
     14       0.6744      0.00000
     15       0.8624      0.00000
     16       0.8839      0.00000

 k-point     2 :       0.3750    0.1250    0.1250
  band No.  band energies     occupation 
      1     -56.6274      1.00000
      2     -32.6172      1.00000
      3     -32.6172      1.00000
      4     -32.6172      1.00000
      5      -1.6618      0.00000
      6      -0.9025      0.00000
      7      -0.9025      0.00000
      8      -0.9025      0.00000
      9      -0.8425      0.00000
     10      -0.8424      0.00000
     11       0.2239      0.00000
     12       0.4060      0.00000
     13       0.6325      0.00000
     14       0.7054      0.00000
     15       0.7775      0.00000
     16       0.8156      0.00000

 k-point     3 :       0.3750    0.3750    0.1250
  band No.  band energies     occupation 
      1     -56.6274      1.00000
      2     -32.6172      1.00000
      3     -32.6172      1.00000
      4     -32.6172      1.00000
      5      -1.6616      0.00000
      6      -0.9026      0.00000
      7      -0.9025      0.00000
      8      -0.9025      0.00000
      9      -0.8425      0.00000
     10      -0.8423      0.00000
     11       0.2919      0.00000
     12       0.4028      0.00000
     13       0.5149      0.00000
     14       0.6121      0.00000
     15       0.8018      0.00000
     16       0.8423      0.00000

 k-point     4 :       0.3750    0.3750    0.3750
  band No.  band energies     occupation 
      1     -56.6274      1.00000
      2     -32.6172      1.00000
      3     -32.6172      1.00000
      4     -32.6172      1.00000
      5      -1.6614      0.00000
      6      -0.9026      0.00000
      7      -0.9026      0.00000
      8      -0.9026      0.00000
      9      -0.8424      0.00000
     10      -0.8424      0.00000
     11       0.3640      0.00000
     12       0.4796      0.00000
     13       0.4796      0.00000
     14       0.5693      0.00000
     15       0.6623      0.00000
     16       0.6623      0.00000


--------------------------------------------------------------------------------------------------------


 soft charge-density along one line, spin component           1
         0         1         2         3         4         5         6         7         8         9
 total charge-density along one line
 
 soft charge-density along one line, spin component           2
         0         1         2         3         4         5         6         7         8         9
 total charge-density along one line
 
 pseudopotential strength for first ion, spin component:           1
  6.949 -25.752  -0.000  -0.000   0.000   0.000   0.000  -0.000
-25.752  14.140  -0.000  -0.000   0.000   0.000   0.000  -0.000
 -0.000  -0.000 -12.954  -0.000  -0.000  10.058   0.000   0.000
 -0.000  -0.000  -0.000 -12.954   0.000   0.000  10.058  -0.000
  0.000   0.000  -0.000   0.000 -12.954   0.000  -0.000  10.058
  0.000   0.000  10.058   0.000   0.000   5.381  -0.000  -0.000
  0.000   0.000   0.000  10.058  -0.000  -0.000   5.381   0.000
 -0.000  -0.000   0.000  -0.000  10.058  -0.000   0.000   5.381
 -0.000  -0.000   0.000  -0.000  -0.000  -0.000   0.000   0.000
 -0.000  -0.000  -0.000  -0.000  -0.000   0.000   0.000   0.000
  0.000   0.000  -0.000  -0.000  -0.000   0.000   0.000   0.000
  0.000   0.000  -0.000   0.000  -0.000   0.000  -0.000   0.000
  0.000   0.000   0.000   0.000   0.000  -0.000  -0.000  -0.000
 -0.000  -0.000   0.000  -0.000  -0.000  -0.000   0.000   0.000
 -0.000  -0.000  -0.000  -0.000  -0.000   0.000   0.000   0.000
  0.000   0.000  -0.000  -0.000  -0.000   0.000   0.000   0.000
  0.000   0.000  -0.000   0.000  -0.000   0.000  -0.000   0.000
  0.000   0.000   0.000   0.000   0.000  -0.000  -0.000  -0.000
 pseudopotential strength for first ion, spin component:           2
  6.609 -24.875  -0.000  -0.000   0.000   0.000   0.000  -0.000
-24.875  13.352  -0.000  -0.000   0.000   0.000   0.000  -0.000
 -0.000  -0.000 -12.533  -0.000  -0.000   9.594   0.000   0.000
 -0.000  -0.000  -0.000 -12.533   0.000   0.000   9.594  -0.000
  0.000   0.000  -0.000   0.000 -12.533   0.000  -0.000   9.594
  0.000   0.000   9.594   0.000   0.000   5.575  -0.000  -0.000
  0.000   0.000   0.000   9.594  -0.000  -0.000   5.575   0.000
 -0.000  -0.000   0.000  -0.000   9.594  -0.000   0.000   5.575
 -0.000  -0.000   0.000   0.000  -0.000  -0.000  -0.000   0.000
 -0.000  -0.000  -0.000  -0.000   0.000   0.000   0.000  -0.000
  0.000   0.000  -0.000  -0.000  -0.000   0.000   0.000   0.000
  0.000   0.000   0.000   0.000  -0.000  -0.000  -0.000   0.000
  0.000   0.000   0.000   0.000   0.000  -0.000  -0.000  -0.000
 -0.000  -0.000   0.000   0.000  -0.000  -0.000  -0.000   0.000
 -0.000  -0.000  -0.000  -0.000   0.000   0.000   0.000  -0.000
  0.000   0.000  -0.000  -0.000  -0.000   0.000   0.000   0.000
  0.000   0.000   0.000   0.000  -0.000  -0.000  -0.000   0.000
  0.000   0.000   0.000   0.000   0.000  -0.000  -0.000  -0.000
 total augmentation occupancy for first ion, spin component:           1
  2.000  -0.000   0.000   0.000   0.000   0.000   0.000   0.000   0.000   0.000  -0.000  -0.000   0.000  -0.000  -0.000  -0.000
 -0.000   1.052   0.000   0.000   0.000   0.000   0.000   0.000  -0.000   0.000  -0.000  -0.000   0.000   0.000   0.000   0.000
  0.000   0.000   1.997   0.000   0.000   0.002   0.000  -0.000   0.000   0.000   0.000   0.000   0.000   0.000   0.000   0.000
  0.000   0.000   0.000   1.997   0.000   0.000   0.002  -0.000   0.000   0.000   0.000   0.000   0.000   0.000   0.000   0.000
  0.000   0.000   0.000   0.000   1.997  -0.000  -0.000   0.002   0.000   0.000   0.000   0.000   0.000   0.000   0.000   0.000
  0.000   0.000   0.002   0.000  -0.000   0.000   0.000   0.000   0.000   0.000   0.000   0.000   0.000   0.000   0.000   0.000
  0.000   0.000   0.000   0.002  -0.000   0.000   0.000   0.000   0.000   0.000   0.000   0.000   0.000   0.000   0.000   0.000
  0.000   0.000  -0.000  -0.000   0.002   0.000   0.000   0.000   0.000   0.000   0.000   0.000   0.000   0.000   0.000   0.000
  0.000  -0.000   0.000   0.000   0.000   0.000   0.000   0.000   1.274   0.000   0.000  -0.000   0.000  -0.221  -0.000  -0.000
 -0.000   0.000   0.000   0.000   0.000   0.000   0.000   0.000   0.000   1.274   0.000  -0.000   0.000  -0.000  -0.221   0.000
 -0.000  -0.000   0.000   0.000   0.000   0.000   0.000   0.000  -0.000   0.000   1.348   0.000  -0.000  -0.000  -0.000  -0.230
  0.000  -0.000   0.000   0.000   0.000   0.000   0.000   0.000  -0.000  -0.000   0.000   1.274  -0.000   0.000   0.000   0.000
  0.000   0.000   0.000   0.000   0.000   0.000   0.000   0.000   0.000   0.000   0.000  -0.000   1.348   0.000   0.000  -0.000
 -0.000  -0.000   0.000   0.000   0.000   0.000   0.000   0.000  -0.221  -0.000  -0.000   0.000  -0.000   0.038   0.000  -0.000
 -0.000   0.000   0.000   0.000   0.000   0.000   0.000   0.000  -0.000  -0.221  -0.000   0.000   0.000   0.000   0.038  -0.000
 -0.000   0.000   0.000   0.000   0.000   0.000   0.000   0.000  -0.000   0.000  -0.230   0.000  -0.000  -0.000  -0.000   0.039
 -0.000   0.000   0.000   0.000   0.000   0.000   0.000   0.000   0.000   0.000  -0.000  -0.221   0.000   0.000   0.000  -0.000
  0.000  -0.000   0.000   0.000   0.000   0.000   0.000   0.000   0.000  -0.000  -0.000  -0.000  -0.230   0.000  -0.000   0.000
 total augmentation occupancy for first ion, spin component:           2
  0.004   0.028   0.000   0.000   0.000   0.000   0.000   0.000   0.000   0.000  -0.000   0.000   0.000  -0.000  -0.000   0.000
  0.028   1.052   0.000   0.000   0.000   0.000   0.000   0.000  -0.000  -0.000  -0.000   0.000   0.000  -0.000  -0.000   0.000
  0.000   0.000   0.007   0.000   0.000   0.021   0.000   0.000   0.000   0.000   0.000   0.000   0.000   0.000   0.000   0.000
  0.000   0.000   0.000   0.007   0.000  -0.000   0.021  -0.000   0.000   0.000   0.000   0.000   0.000   0.000   0.000   0.000
  0.000   0.000   0.000   0.000   0.007   0.000   0.000   0.021   0.000   0.000   0.000   0.000   0.000   0.000   0.000   0.000
  0.000   0.000   0.021  -0.000   0.000   0.000   0.000   0.000   0.000   0.000   0.000   0.000   0.000   0.000   0.000   0.000
  0.000   0.000   0.000   0.021   0.000   0.000   0.000   0.000   0.000   0.000   0.000   0.000   0.000   0.000   0.000   0.000
  0.000   0.000   0.000  -0.000   0.021   0.000   0.000   0.000   0.000   0.000   0.000   0.000   0.000   0.000   0.000   0.000
  0.000  -0.000   0.000   0.000   0.000   0.000   0.000   0.000   1.274  -0.000  -0.000  -0.000  -0.000  -0.221  -0.000   0.000
  0.000  -0.000   0.000   0.000   0.000   0.000   0.000   0.000  -0.000   1.274   0.000  -0.000   0.000   0.000  -0.221  -0.000
 -0.000  -0.000   0.000   0.000   0.000   0.000   0.000   0.000  -0.000   0.000   1.348   0.000  -0.000   0.000  -0.000  -0.230
 -0.000   0.000   0.000   0.000   0.000   0.000   0.000   0.000  -0.000  -0.000   0.000   1.274  -0.000   0.000   0.000  -0.000
  0.000   0.000   0.000   0.000   0.000   0.000   0.000   0.000  -0.000   0.000   0.000  -0.000   1.348   0.000   0.000  -0.000
 -0.000  -0.000   0.000   0.000   0.000   0.000   0.000   0.000  -0.221   0.000   0.000   0.000  -0.000   0.038   0.000  -0.000
 -0.000  -0.000   0.000   0.000   0.000   0.000   0.000   0.000  -0.000  -0.221  -0.000   0.000   0.000   0.000   0.038  -0.000
  0.000   0.000   0.000   0.000   0.000   0.000   0.000   0.000   0.000   0.000  -0.230  -0.000  -0.000  -0.000  -0.000   0.039
  0.000   0.000   0.000   0.000   0.000   0.000   0.000   0.000   0.000   0.000  -0.000  -0.221  -0.000   0.000   0.000  -0.000
  0.000   0.000   0.000   0.000   0.000   0.000   0.000   0.000  -0.000  -0.000  -0.000   0.000  -0.230   0.000   0.000   0.000


------------------------ aborting loop because EDIFF is reached ----------------------------------------


    CHARGE:  cpu time    0.0888: real time    0.0903
    FORLOC:  cpu time    0.0015: real time    0.0015
    FORNL :  cpu time    0.0214: real time    0.0215
    STRESS:  cpu time    0.2413: real time    0.2424
    FORCOR:  cpu time    0.1027: real time    0.1032
    FORHAR:  cpu time    0.0103: real time    0.0106
    MIXING:  cpu time    0.0143: real time    0.0144
    OFIELD:  cpu time    0.0000: real time    0.0001

  FORCE on cell =-STRESS in cart. coord.  units (eV):
  Direction    XX          YY          ZZ          XY          YZ          ZX
  --------------------------------------------------------------------------------------
  Alpha Z     0.44164     0.44164     0.44164
  Ewald     -76.71939   -76.71939   -76.71939    -0.00000    -0.00000     0.00000
  Hartree   355.44892   355.44892   355.44892    -0.00000    -0.00000    -0.00000
  E(xc)     -59.01848   -59.01848   -59.01848     0.00000     0.00000     0.00000
  Local    -481.95315  -481.95315  -481.95315    -0.00000     0.00000    -0.00000
  n-local   -12.40807   -12.40793   -12.40776    -0.00000     0.00004     0.00002
  augment    20.81659    20.81659    20.81659     0.00000     0.00000     0.00000
  Kinetic   253.16988   253.16874   253.16691    -0.00064    -0.00011    -0.00073
  Fock        0.00000     0.00000     0.00000     0.00000     0.00000     0.00000
  -------------------------------------------------------------------------------------
  Total      -0.22328    -0.22328    -0.22328    -0.00000    -0.00000     0.00000
  in kB      -0.10600    -0.10600    -0.10600    -0.00000    -0.00000     0.00000
  external pressure =       -0.11 kB  Pullay stress =        0.00 kB


 VOLUME and BASIS-vectors are now :
 -----------------------------------------------------------------------------
  energy-cutoff  :      293.24
  volume of cell :     3375.00
      direct lattice vectors                 reciprocal lattice vectors
    15.000000000  0.000000000  0.000000000     0.066666667  0.000000000  0.000000000
     0.000000000 15.000000000  0.000000000     0.000000000  0.066666667  0.000000000
     0.000000000  0.000000000 15.000000000     0.000000000  0.000000000  0.066666667

  length of vectors
    15.000000000 15.000000000 15.000000000     0.066666667  0.066666667  0.066666667


 FORCES acting on ions
    electron-ion (+dipol)            ewald-force                    non-local-force                 convergence-correction
 -----------------------------------------------------------------------------------------------
   0.840E-12 -.128E-11 -.195E-11   0.101E-15 0.126E-16 0.193E-16   0.252E-27 -.555E-27 -.353E-27   0.278E-13 0.176E-12 0.402E-13
 -----------------------------------------------------------------------------------------------
   0.840E-12 -.128E-11 -.195E-11   0.101E-15 0.126E-16 0.193E-16   0.252E-27 -.555E-27 -.353E-27   0.278E-13 0.176E-12 0.402E-13
 
 
 POSITION                                       TOTAL-FORCE (eV/Angst)
 -----------------------------------------------------------------------------------
      7.50000      7.50000      7.50000         0.000000      0.000000      0.000000
 -----------------------------------------------------------------------------------
    total drift:                                0.000000     -0.000000     -0.000000


--------------------------------------------------------------------------------------------------------



  FREE ENERGIE OF THE ION-ELECTRON SYSTEM (eV)
  ---------------------------------------------------
  free  energy   TOTEN  =        -3.31797244 eV

  energy  without entropy=       -3.12084549  energy(sigma->0) =       -3.21940896
 


--------------------------------------------------------------------------------------------------------


    POTLOK:  cpu time    0.1173: real time    0.1177


--------------------------------------------------------------------------------------------------------




--------------------------------------------------------------------------------------------------------


  
 reached required accuracy - stopping structural energy minimisation
 writing wavefunctions
     LOOP+:  cpu time  116.3121: real time  117.1971
    4ORBIT:  cpu time    0.0000: real time    0.0000

 total amount of memory used by VASP MPI-rank0    93955. kBytes
=======================================================================

   base      :      30000. kBytes
   nonl-proj :      22799. kBytes
   fftplans  :       5538. kBytes
   grid      :      30654. kBytes
   one-center:         31. kBytes
   wavefun   :       4933. kBytes
 
  
  
 General timing and accounting informations for this job:
 ========================================================
  
                  Total CPU time used (sec):      120.572
                            User time (sec):      114.610
                          System time (sec):        5.962
                         Elapsed time (sec):      122.244
  
                   Maximum memory used (kb):      277260.
                   Average memory used (kb):           0.
  
                          Minor page faults:       227538
                          Major page faults:           33
                 Voluntary context switches:        33973
