 vasp.5.4.4.18Apr17-6-g9f103f2a35 (build Jan 21 2021 13:12:21) complex          
  
 executed on             LinuxIFC date 2021.12.20  22:35:58
 running on   16 total cores
 distrk:  each k-point on   16 cores,    1 groups
 distr:  one band on NCORES_PER_BAND=   1 cores,   16 groups


--------------------------------------------------------------------------------------------------------


 INCAR:
 POTCAR:    PAW_PBE Nb_sv 25May2007               

 ----------------------------------------------------------------------------- 
|                                                                             |
|           W    W    AA    RRRRR   N    N  II  N    N   GGGG   !!!           |
|           W    W   A  A   R    R  NN   N  II  NN   N  G    G  !!!           |
|           W    W  A    A  R    R  N N  N  II  N N  N  G       !!!           |
|           W WW W  AAAAAA  RRRRR   N  N N  II  N  N N  G  GGG   !            |
|           WW  WW  A    A  R   R   N   NN  II  N   NN  G    G                |
|           W    W  A    A  R    R  N    N  II  N    N   GGGG   !!!           |
|                                                                             |
|      For optimal performance we recommend to set                            |
|        NCORE= 4 - approx SQRT( number of cores)                             |
|      NCORE specifies how many cores store one orbital (NPAR=cpu/NCORE).     |
|      This setting can  greatly improve the performance of VASP for DFT.     |
|      The default,   NCORE=1            might be grossly inefficient         |
|      on modern multi-core architectures or massively parallel machines.     |
|      Do your own testing !!!!                                               |
|      Unfortunately you need to use the default for GW and RPA calculations. |
|      (for HF NCORE is supported but not extensively tested yet)             |
|                                                                             |
 ----------------------------------------------------------------------------- 

 POTCAR:    PAW_PBE Nb_sv 25May2007               
   VRHFIN =Nb: 4p5s4d                                                           
   LEXCH  = PE                                                                  
   EATOM  =  1555.1913 eV,  114.3033 Ry                                         
                                                                                
   TITEL  = PAW_PBE Nb_sv 25May2007                                             
   LULTRA =        F    use ultrasoft PP ?                                      
   IUNSCR =        1    unscreen: 0-lin 1-nonlin 2-no                           
   RPACOR =    1.800    partial core radius                                     
   POMASS =   92.910; ZVAL   =   13.000    mass and valenz                      
   RCORE  =    2.400    outmost cutoff radius                                   
   RWIGS  =    2.400; RWIGS  =    1.270    wigner-seitz radius (au A)           
   ENMAX  =  293.235; ENMIN  =  219.927 eV                                      
   ICORE  =        3    local potential                                         
   LCOR   =        T    correct aug charges                                     
   LPAW   =        T    paw PP                                                  
   EAUG   =  455.659                                                            
   DEXC   =    0.000                                                            
   RMAX   =    2.456    core radius for proj-oper                               
   RAUG   =    1.300    factor for augmentation sphere                          
   RDEP   =    2.451    radius for radial grids                                 
   RDEPT  =    1.956    core radius for aug-charge                              
                                                                                
   Atomic configuration                                                         
   11 entries                                                                   
     n  l   j            E        occ.                                          
     1  0  0.50    -18805.2457   2.0000                                         
     2  0  0.50     -2630.2869   2.0000                                         
     2  1  1.50     -2348.4046   6.0000                                         
     3  0  0.50      -438.8757   2.0000                                         
     3  1  1.50      -346.7588   6.0000                                         
     3  2  2.50      -196.2560  10.0000                                         
     4  0  0.50       -58.3859   2.0000                                         
     5  0  0.50        -3.9816   1.0000                                         
     4  1  1.50       -34.5141   6.0000                                         
     4  2  2.50        -3.0408   4.0000                                         
     4  3  2.50        -1.3606   0.0000                                         
   Description                                                                  
     l       E           TYP  RCUT    TYP  RCUT                                 
     0    -58.3859094     23  2.200                                             
     0     -3.9816262     23  2.200                                             
     1    -34.5140738     23  2.200                                             
     1     13.6058260     23  2.200                                             
     2     -3.0408010     23  2.200                                             
     2     -0.1283038     23  2.200                                             
     3     -1.3605826     23  2.400                                             
  local pseudopotential read in
  partial core-charges read in
  partial kinetic energy density read in
  atomic valenz-charges read in
  non local Contribution for L=           0  read in
    real space projection operators read in
  non local Contribution for L=           0  read in
    real space projection operators read in
  non local Contribution for L=           1  read in
    real space projection operators read in
  non local Contribution for L=           1  read in
    real space projection operators read in
  non local Contribution for L=           2  read in
    real space projection operators read in
  non local Contribution for L=           2  read in
    real space projection operators read in
    PAW grid and wavefunctions read in
 
   number of l-projection  operators is LMAX  =           6
   number of lm-projection operators is LMMAX =          18
 
  PAW_PBE Nb_sv 25May2007               :
 energy of atom  1       EATOM=-1555.1913
 kinetic energy error for atom=    0.0711 (will be added to EATOM!!)
 
 
 POSCAR: O dimer in a box                        
  positions in direct lattice
  velocities in cartesian coordinates
 exchange correlation table for  LEXCH =        8
   RHO(1)=    0.500       N(1)  =     2000
   RHO(2)=  100.500       N(2)  =     4000
 


--------------------------------------------------------------------------------------------------------


 ion  position               nearest neighbor table
   1  0.000  0.000  0.000-   2 2.67
   2  0.000  0.000  0.222-   1 2.67
 
  LATTYP: Found a simple cubic cell.
 ALAT       =    12.0000000000
  
  Lattice vectors:
  
 A1 = (  12.0000000000,   0.0000000000,   0.0000000000)
 A2 = (   0.0000000000,  12.0000000000,   0.0000000000)
 A3 = (   0.0000000000,   0.0000000000,  12.0000000000)


Analysis of symmetry for initial positions (statically):
=====================================================================
 Subroutine PRICEL returns:
 Original cell was already a primitive cell.
 

 Routine SETGRP: Setting up the symmetry group for a 
 simple cubic supercell.


 Subroutine GETGRP returns: Found 16 space group operations
 (whereof  8 operations were pure point group operations)
 out of a pool of 48 trial point group operations.


The static configuration has the point symmetry C_4v.
 The point group associated with its full space group is D_4h.


Analysis of symmetry for dynamics (positions and initial velocities):
=====================================================================
 Subroutine PRICEL returns:
 Original cell was already a primitive cell.
 

 Routine SETGRP: Setting up the symmetry group for a 
 simple cubic supercell.


 Subroutine GETGRP returns: Found 16 space group operations
 (whereof  8 operations were pure point group operations)
 out of a pool of 48 trial point group operations.


The dynamic configuration has the point symmetry C_4v.
 The point group associated with its full space group is D_4h.


Analysis of constrained symmetry for selective dynamics:
=====================================================================
 Subroutine PRICEL returns:
 Original cell was already a primitive cell.
 

 Routine SETGRP: Setting up the symmetry group for a 
 simple cubic supercell.


 Subroutine GETGRP returns: Found 16 space group operations
 (whereof  8 operations were pure point group operations)
 out of a pool of 48 trial point group operations.


The constrained configuration has the point symmetry C_4v.
 The point group associated with its full space group is D_4h.


Analysis of structural, dynamic, and magnetic symmetry:
=====================================================================
 Subroutine PRICEL returns:
 Original cell was already a primitive cell.
 

 Routine SETGRP: Setting up the symmetry group for a 
 simple cubic supercell.


 Subroutine GETGRP returns: Found 16 space group operations
 (whereof  8 operations were pure point group operations)
 out of a pool of 48 trial point group operations.


The magnetic configuration has the point symmetry C_4v.
 The point group associated with its full space group is D_4h.


 Subroutine INISYM returns: Found 16 space group operations
 (whereof  8 operations are pure point group operations),
 and found     1 'primitive' translations

 
 
 KPOINTS: Gamma-point only                        

Automatic generation of k-mesh.
Space group operators:
 irot       det(A)        alpha          n_x          n_y          n_z        tau_x        tau_y        tau_z
    1     1.000000     0.000000     1.000000     0.000000     0.000000     0.000000     0.000000     0.000000
    2     1.000000    90.000000     0.000000     0.000000    -1.000000     0.000000     0.000000     0.000000
    3     1.000000   180.000000     0.000000     0.000000     1.000000     0.000000     0.000000     0.000000
    4     1.000000    90.000000     0.000000     0.000000     1.000000     0.000000     0.000000     0.000000
    5    -1.000000   180.000000     1.000000     0.000000     0.000000     0.000000     0.000000     0.000000
    6    -1.000000   180.000000     0.707107     0.707107     0.000000     0.000000     0.000000     0.000000
    7    -1.000000   180.000000     0.000000     1.000000     0.000000     0.000000     0.000000     0.000000
    8    -1.000000   180.000000     0.707107    -0.707107     0.000000     0.000000     0.000000     0.000000
    9    -1.000000     0.000000     1.000000     0.000000     0.000000     0.000000     0.000000     0.222201
   10    -1.000000    90.000000     0.000000     0.000000    -1.000000     0.000000     0.000000     0.222201
   11    -1.000000   180.000000     0.000000     0.000000     1.000000     0.000000     0.000000     0.222201
   12    -1.000000    90.000000     0.000000     0.000000     1.000000     0.000000     0.000000     0.222201
   13     1.000000   180.000000     1.000000     0.000000     0.000000     0.000000     0.000000     0.222201
   14     1.000000   180.000000     0.707107     0.707107     0.000000     0.000000     0.000000     0.222201
   15     1.000000   180.000000     0.000000     1.000000     0.000000     0.000000     0.000000     0.222201
   16     1.000000   180.000000     0.707107    -0.707107     0.000000     0.000000     0.000000     0.222201
 
 Subroutine IBZKPT returns following result:
 ===========================================
 
 Found      6 irreducible k-points:
 
 Following reciprocal coordinates:
            Coordinates               Weight
  0.125000  0.125000  0.125000      8.000000
  0.375000  0.125000  0.125000     16.000000
  0.375000  0.375000  0.125000      8.000000
  0.125000  0.125000  0.375000      8.000000
  0.375000  0.125000  0.375000     16.000000
  0.375000  0.375000  0.375000      8.000000
 
 Following cartesian coordinates:
            Coordinates               Weight
  0.010417  0.010417  0.010417      8.000000
  0.031250  0.010417  0.010417     16.000000
  0.031250  0.031250  0.010417      8.000000
  0.010417  0.010417  0.031250      8.000000
  0.031250  0.010417  0.031250     16.000000
  0.031250  0.031250  0.031250      8.000000
 


--------------------------------------------------------------------------------------------------------




 Dimension of arrays:
   k-points           NKPTS =      6   k-points in BZ     NKDIM =      6   number of bands    NBANDS=     32
   number of dos      NEDOS =    301   number of ions     NIONS =      2
   non local maximal  LDIM  =      6   non local SUM 2l+1 LMDIM =     18
   total plane-waves  NPLWV = 125000
   max r-space proj   IRMAX =      1   max aug-charges    IRDMAX=   3263
   dimension x,y,z NGX =    50 NGY =   50 NGZ =   50
   dimension x,y,z NGXF=   100 NGYF=  100 NGZF=  100
   support grid    NGXF=   100 NGYF=  100 NGZF=  100
   ions per type =               2
   NGX,Y,Z   is equivalent  to a cutoff of   6.93,  6.93,  6.93 a.u.
   NGXF,Y,Z  is equivalent  to a cutoff of  13.85, 13.85, 13.85 a.u.

 SYSTEM =  Te                                      
 POSCAR =  O dimer in a box                        

 Startparameter for this run:
   NWRITE =      2    write-flag & timer
   PREC   = normal    normal or accurate (medium, high low for compatibility)
   ISTART =      0    job   : 0-new  1-cont  2-samecut
   ICHARG =      2    charge: 1-file 2-atom 10-const
   ISPIN  =      2    spin polarized calculation?
   LNONCOLLINEAR =      F non collinear calculations
   LSORBIT =      F    spin-orbit coupling
   INIWAV =      1    electr: 0-lowe 1-rand  2-diag
   LASPH  =      F    aspherical Exc in radial PAW
   METAGGA=      F    non-selfconsistent MetaGGA calc.

 Electronic Relaxation 1
   ENCUT  =  293.2 eV  21.55 Ry    4.64 a.u.  16.76 16.76 16.76*2*pi/ulx,y,z
   ENINI  =  293.2     initial cutoff
   ENAUG  =  455.7 eV  augmentation charge cutoff
   NELM   =     60;   NELMIN=  2; NELMDL= -5     # of ELM steps 
   EDIFF  = 0.1E-03   stopping-criterion for ELM
   LREAL  =      F    real-space projection
   NLSPLINE    = F    spline interpolate recip. space projectors
   LCOMPAT=      F    compatible to vasp.4.4
   GGA_COMPAT  = T    GGA compatible to vasp.4.4-vasp.4.6
   LMAXPAW     = -100 max onsite density
   LMAXMIX     =    2 max onsite mixed and CHGCAR
   VOSKOWN=      0    Vosko Wilk Nusair interpolation
   ROPT   =    0.00000
 Ionic relaxation
   EDIFFG = 0.1E-02   stopping-criterion for IOM
   NSW    =    100    number of steps for IOM
   NBLOCK =      1;   KBLOCK =    100    inner block; outer block 
   IBRION =      2    ionic relax: 0-MD 1-quasi-New 2-CG
   NFREE  =      1    steps in history (QN), initial steepest desc. (CG)
   ISIF   =      2    stress and relaxation
   IWAVPR =     11    prediction:  0-non 1-charg 2-wave 3-comb
   ISYM   =      2    0-nonsym 1-usesym 2-fastsym
   LCORR  =      T    Harris-Foulkes like correction to forces

   POTIM  = 0.5000    time-step for ionic-motion
   TEIN   =    0.0    initial temperature
   TEBEG  =    0.0;   TEEND  =   0.0 temperature during run
   SMASS  =  -3.00    Nose mass-parameter (am)
   estimated Nose-frequenzy (Omega)   =  0.10E-29 period in steps =****** mass=  -0.329E-26a.u.
   SCALEE = 1.0000    scale energy and forces
   NPACO  =    256;   APACO  = 16.0  distance and # of slots for P.C.
   PSTRESS=    0.0 pullay stress

  Mass of Ions in am
   POMASS =  92.91
  Ionic Valenz
   ZVAL   =  13.00
  Atomic Wigner-Seitz radii
   RWIGS  =  -1.00
  virtual crystal weights 
   VCA    =   1.00
   NELECT =      26.0000    total number of electrons
   NUPDOWN=      -1.0000    fix difference up-down

 DOS related values:
   EMIN   =  10.00;   EMAX   =-10.00  energy-range for DOS
   EFERMI =   0.00
   ISMEAR =     0;   SIGMA  =   0.20  broadening in eV -4-tet -1-fermi 0-gaus

 Electronic relaxation 2 (details)
   IALGO  =     38    algorithm
   LDIAG  =      T    sub-space diagonalisation (order eigenvalues)
   LSUBROT=      F    optimize rotation matrix (better conditioning)
   TURBO    =      0    0=normal 1=particle mesh
   IRESTART =      0    0=no restart 2=restart with 2 vectors
   NREBOOT  =      0    no. of reboots
   NMIN     =      0    reboot dimension
   EREF     =   0.00    reference energy to select bands
   IMIX   =      4    mixing-type and parameters
     AMIX     =   0.40;   BMIX     =  1.00
     AMIX_MAG =   1.60;   BMIX_MAG =  1.00
     AMIN     =   0.10
     WC   =   100.;   INIMIX=   1;  MIXPRE=   1;  MAXMIX= -45

 Intra band minimization:
   WEIMIN = 0.0010     energy-eigenvalue tresh-hold
   EBREAK =  0.78E-06  absolut break condition
   DEPER  =   0.30     relativ break condition  

   TIME   =   0.40     timestep for ELM

  volume/ion in A,a.u.               =     864.00      5830.56
  Fermi-wavevector in a.u.,A,eV,Ry     =   0.404158  0.763748  2.222428  0.163344
  Thomas-Fermi vector in A             =   1.355594
 
 Write flags
   LWAVE        =      T    write WAVECAR
   LDOWNSAMPLE  =      F    k-point downsampling of WAVECAR
   LCHARG       =      T    write CHGCAR
   LVTOT        =      F    write LOCPOT, total local potential
   LVHAR        =      F    write LOCPOT, Hartree potential only
   LELF         =      F    write electronic localiz. function (ELF)
   LORBIT       =      0    0 simple, 1 ext, 2 COOP (PROOUT), +10 PAW based schemes


 Dipole corrections
   LMONO  =      F    monopole corrections only (constant potential shift)
   LDIPOL =      F    correct potential (dipole corrections)
   IDIPOL =      0    1-x, 2-y, 3-z, 4-all directions 
   EPSILON=  1.0000000 bulk dielectric constant

 Exchange correlation treatment:
   GGA     =    --    GGA type
   LEXCH   =     8    internal setting for exchange type
   VOSKOWN=      0    Vosko Wilk Nusair interpolation
   LHFCALC =     F    Hartree Fock is set to
   LHFONE  =     F    Hartree Fock one center treatment
   AEXX    =    0.0000 exact exchange contribution

 Linear response parameters
   LEPSILON=     F    determine dielectric tensor
   LRPA    =     F    only Hartree local field effects (RPA)
   LNABLA  =     F    use nabla operator in PAW spheres
   LVEL    =     F    velocity operator in full k-point grid
   LINTERFAST=   F  fast interpolation
   KINTER  =     0    interpolate to denser k-point grid
   CSHIFT  =0.1000    complex shift for real part using Kramers Kronig
   OMEGAMAX=  -1.0    maximum frequency
   DEG_THRESHOLD= 0.2000000E-02 threshold for treating states as degnerate
   RTIME   =   -0.100 relaxation time in fs
  (WPLASMAI=    0.000 imaginary part of plasma frequency in eV, 0.658/RTIME)
   DFIELD  = 0.0000000 0.0000000 0.0000000 field for delta impulse in time
 
 Orbital magnetization related:
   ORBITALMAG=     F  switch on orbital magnetization
   LCHIMAG   =     F  perturbation theory with respect to B field
   DQ        =  0.001000  dq finite difference perturbation B field
   LLRAUG    =     F  two centre corrections for induced B field



--------------------------------------------------------------------------------------------------------


 conjugate gradient relaxation of ions
   using selective dynamics as specified on POSCAR
 charge density and potential will be updated during run
 spin polarized calculation
 Variant of blocked Davidson
 Davidson routine will perform the subspace rotation
 perform sub-space diagonalisation
    after iterative eigenvector-optimisation
 modified Broyden-mixing scheme, WC =      100.0
 initial mixing is a Kerker type mixing with AMIX =  0.4000 and BMIX =      1.0000
 Hartree-type preconditioning will be used
 using additional bands           19
 reciprocal scheme for non local part
 use partial core corrections
 calculate Harris-corrections to forces 
   (improved forces if not selfconsistent)
 use gradient corrections 
 use of overlap-Matrix (Vanderbilt PP)
 Gauss-broadening in eV      SIGMA  =   0.20


--------------------------------------------------------------------------------------------------------


  energy-cutoff  :      293.24
  volume of cell :     1728.00
      direct lattice vectors                 reciprocal lattice vectors
    12.000000000  0.000000000  0.000000000     0.083333333  0.000000000  0.000000000
     0.000000000 12.000000000  0.000000000     0.000000000  0.083333333  0.000000000
     0.000000000  0.000000000 12.000000000     0.000000000  0.000000000  0.083333333

  length of vectors
    12.000000000 12.000000000 12.000000000     0.083333333  0.083333333  0.083333333


 
 k-points in units of 2pi/SCALE and weight: Gamma-point only                        
   0.01041667  0.01041667  0.01041667       0.125
   0.03125000  0.01041667  0.01041667       0.250
   0.03125000  0.03125000  0.01041667       0.125
   0.01041667  0.01041667  0.03125000       0.125
   0.03125000  0.01041667  0.03125000       0.250
   0.03125000  0.03125000  0.03125000       0.125
 
 k-points in reciprocal lattice and weights: Gamma-point only                        
   0.12500000  0.12500000  0.12500000       0.125
   0.37500000  0.12500000  0.12500000       0.250
   0.37500000  0.37500000  0.12500000       0.125
   0.12500000  0.12500000  0.37500000       0.125
   0.37500000  0.12500000  0.37500000       0.250
   0.37500000  0.37500000  0.37500000       0.125
 
 position of ions in fractional coordinates (direct lattice) 
   0.00000000  0.00000000  0.00000000
   0.00000000  0.00000000  0.22220112
 
 position of ions in cartesian coordinates  (Angst):
   0.00000000  0.00000000  0.00000000
   0.00000000  0.00000000  2.66641346
 


--------------------------------------------------------------------------------------------------------


 k-point  1 :   0.1250 0.1250 0.1250  plane waves:   19717
 k-point  2 :   0.3750 0.1250 0.1250  plane waves:   19713
 k-point  3 :   0.3750 0.3750 0.1250  plane waves:   19693
 k-point  4 :   0.1250 0.1250 0.3750  plane waves:   19713
 k-point  5 :   0.3750 0.1250 0.3750  plane waves:   19693
 k-point  6 :   0.3750 0.3750 0.3750  plane waves:   19730

 maximum and minimum number of plane-waves per node :     19730    19693

 maximum number of plane-waves:     19730
 maximum index in each direction: 
   IXMAX=   16   IYMAX=   16   IZMAX=   16
   IXMIN=  -17   IYMIN=  -17   IZMIN=  -17


 serial   3D FFT for wavefunctions
 parallel 3D FFT for charge:
    minimum data exchange during FFTs selected (reduces bandwidth)


 total amount of memory used by VASP MPI-rank0    73414. kBytes
=======================================================================

   base      :      30000. kBytes
   nonl-proj :      17690. kBytes
   fftplans  :       2864. kBytes
   grid      :      15198. kBytes
   one-center:         62. kBytes
   wavefun   :       7600. kBytes
 
     INWAV:  cpu time    0.0000: real time    0.0000
 Broyden mixing: mesh for mixing (old mesh)
   NGX = 33   NGY = 33   NGZ = 33
  (NGX  =100   NGY  =100   NGZ  =100)
  gives a total of  35937 points

 initial charge density was supplied:
 charge density of overlapping atoms calculated
 number of electron      26.0000000 magnetization       2.0000000
 keeping initial charge density in first step


--------------------------------------------------------------------------------------------------------


 Maximum index for augmentation-charges          446 (set IRDMAX)


--------------------------------------------------------------------------------------------------------


 First call to EWALD:  gamma=   0.148
 Maximum number of real-space cells 3x 3x 3
 Maximum number of reciprocal cells 3x 3x 3

    FEWALD:  cpu time    0.0009: real time    0.0009


--------------------------------------- Iteration      1(   1)  ---------------------------------------


    POTLOK:  cpu time    0.0647: real time    0.0677
    SETDIJ:  cpu time    0.0046: real time    0.0046
     EDDAV:  cpu time    0.7428: real time    0.7693
       DOS:  cpu time    0.0004: real time    0.0004
    --------------------------------------------
      LOOP:  cpu time    0.8125: real time    0.8421

 eigenvalue-minimisations  :  1152
 total energy-change (2. order) : 0.6370833E+02  (-0.8870528E+03)
 number of electron      26.0000000 magnetization       2.0000000
 augmentation part       26.0000000 magnetization       2.0000000

 Free energy of the ion-electron system (eV)
  ---------------------------------------------------
  alpha Z        PSCENC =         3.45035016
  Ewald energy   TEWEN  =      -215.59241578
  -Hartree energ DENC   =     -2363.75237648
  -exchange      EXHF   =         0.00000000
  -V(xc)+E(xc)   XCENC  =       108.14324625
  PAW double counting   =      2467.46322748    -2429.32784001
  entropy T*S    EENTRO =        -0.13549736
  eigenvalues    EBANDS =      -616.78067192
  atomic energy  EATOM  =      3110.24030960
  Solvation  Ediel_sol  =         0.00000000
  ---------------------------------------------------
  free energy    TOTEN  =        63.70833194 eV

  energy without entropy =       63.84382930  energy(sigma->0) =       63.77608062


--------------------------------------------------------------------------------------------------------




--------------------------------------- Iteration      1(   2)  ---------------------------------------


     EDDAV:  cpu time    0.7110: real time    0.7176
       DOS:  cpu time    0.0003: real time    0.0003
    --------------------------------------------
      LOOP:  cpu time    0.7113: real time    0.7179

 eigenvalue-minimisations  :  1120
 total energy-change (2. order) :-0.5359955E+02  (-0.4889424E+02)
 number of electron      26.0000000 magnetization       2.0000000
 augmentation part       26.0000000 magnetization       2.0000000

 Free energy of the ion-electron system (eV)
  ---------------------------------------------------
  alpha Z        PSCENC =         3.45035016
  Ewald energy   TEWEN  =      -215.59241578
  -Hartree energ DENC   =     -2363.75237648
  -exchange      EXHF   =         0.00000000
  -V(xc)+E(xc)   XCENC  =       108.14324625
  PAW double counting   =      2467.46322748    -2429.32784001
  entropy T*S    EENTRO =        -0.08025325
  eigenvalues    EBANDS =      -670.43546677
  atomic energy  EATOM  =      3110.24030960
  Solvation  Ediel_sol  =         0.00000000
  ---------------------------------------------------
  free energy    TOTEN  =        10.10878120 eV

  energy without entropy =       10.18903445  energy(sigma->0) =       10.14890783


--------------------------------------------------------------------------------------------------------




--------------------------------------- Iteration      1(   3)  ---------------------------------------


     EDDAV:  cpu time    0.8609: real time    0.8654
       DOS:  cpu time    0.0004: real time    0.0004
    --------------------------------------------
      LOOP:  cpu time    0.8613: real time    0.8658

 eigenvalue-minimisations  :  1408
 total energy-change (2. order) :-0.1895120E+02  (-0.1589054E+02)
 number of electron      26.0000000 magnetization       2.0000000
 augmentation part       26.0000000 magnetization       2.0000000

 Free energy of the ion-electron system (eV)
  ---------------------------------------------------
  alpha Z        PSCENC =         3.45035016
  Ewald energy   TEWEN  =      -215.59241578
  -Hartree energ DENC   =     -2363.75237648
  -exchange      EXHF   =         0.00000000
  -V(xc)+E(xc)   XCENC  =       108.14324625
  PAW double counting   =      2467.46322748    -2429.32784001
  entropy T*S    EENTRO =        -0.06651295
  eigenvalues    EBANDS =      -689.40040355
  atomic energy  EATOM  =      3110.24030960
  Solvation  Ediel_sol  =         0.00000000
  ---------------------------------------------------
  free energy    TOTEN  =        -8.84241528 eV

  energy without entropy =       -8.77590233  energy(sigma->0) =       -8.80915880


--------------------------------------------------------------------------------------------------------




--------------------------------------- Iteration      1(   4)  ---------------------------------------


     EDDAV:  cpu time    0.5593: real time    0.5621
       DOS:  cpu time    0.0004: real time    0.0004
    --------------------------------------------
      LOOP:  cpu time    0.5597: real time    0.5625

 eigenvalue-minimisations  :   848
 total energy-change (2. order) :-0.1295369E+01  (-0.1269711E+01)
 number of electron      26.0000000 magnetization       2.0000000
 augmentation part       26.0000000 magnetization       2.0000000

 Free energy of the ion-electron system (eV)
  ---------------------------------------------------
  alpha Z        PSCENC =         3.45035016
  Ewald energy   TEWEN  =      -215.59241578
  -Hartree energ DENC   =     -2363.75237648
  -exchange      EXHF   =         0.00000000
  -V(xc)+E(xc)   XCENC  =       108.14324625
  PAW double counting   =      2467.46322748    -2429.32784001
  entropy T*S    EENTRO =        -0.05532576
  eigenvalues    EBANDS =      -690.70696018
  atomic energy  EATOM  =      3110.24030960
  Solvation  Ediel_sol  =         0.00000000
  ---------------------------------------------------
  free energy    TOTEN  =       -10.13778472 eV

  energy without entropy =      -10.08245896  energy(sigma->0) =      -10.11012184


--------------------------------------------------------------------------------------------------------




--------------------------------------- Iteration      1(   5)  ---------------------------------------


     EDDAV:  cpu time    0.7379: real time    0.7413
       DOS:  cpu time    0.0004: real time    0.0004
    CHARGE:  cpu time    0.0627: real time    0.0665
    MIXING:  cpu time    0.0015: real time    0.0015
    --------------------------------------------
      LOOP:  cpu time    0.8026: real time    0.8097

 eigenvalue-minimisations  :  1184
 total energy-change (2. order) :-0.7556291E-01  (-0.7542079E-01)
 number of electron      25.9999937 magnetization       1.9444628
 augmentation part        2.5505758 magnetization       0.2874082

 Broyden mixing:
  rms(total) = 0.72737E+00    rms(broyden)= 0.72642E+00
  rms(prec ) = 0.95795E+00
  weight for this iteration     100.00

 Free energy of the ion-electron system (eV)
  ---------------------------------------------------
  alpha Z        PSCENC =         3.45035016
  Ewald energy   TEWEN  =      -215.59241578
  -Hartree energ DENC   =     -2363.75237648
  -exchange      EXHF   =         0.00000000
  -V(xc)+E(xc)   XCENC  =       108.14324625
  PAW double counting   =      2467.46322748    -2429.32784001
  entropy T*S    EENTRO =        -0.05527964
  eigenvalues    EBANDS =      -690.78256920
  atomic energy  EATOM  =      3110.24030960
  Solvation  Ediel_sol  =         0.00000000
  ---------------------------------------------------
  free energy    TOTEN  =       -10.21334763 eV

  energy without entropy =      -10.15806798  energy(sigma->0) =      -10.18570780


--------------------------------------------------------------------------------------------------------




--------------------------------------- Iteration      1(   6)  ---------------------------------------


    POTLOK:  cpu time    0.0590: real time    0.0595
    SETDIJ:  cpu time    0.0034: real time    0.0034
     EDDAV:  cpu time    0.6995: real time    0.7061
       DOS:  cpu time    0.0003: real time    0.0003
    CHARGE:  cpu time    0.0510: real time    0.0533
    MIXING:  cpu time    0.0016: real time    0.0057
    --------------------------------------------
      LOOP:  cpu time    0.8149: real time    0.8284

 eigenvalue-minimisations  :  1120
 total energy-change (2. order) : 0.1491788E+01  (-0.3017070E+00)
 number of electron      25.9999937 magnetization       2.0599824
 augmentation part        2.5842177 magnetization      -0.0157081

 Broyden mixing:
  rms(total) = 0.30135E+00    rms(broyden)= 0.30101E+00
  rms(prec ) = 0.38924E+00
  weight for this iteration     100.00

 eigenvalues of (default mixing * dielectric matrix)
  average eigenvalue GAMMA=   0.8015
  0.8015

 Free energy of the ion-electron system (eV)
  ---------------------------------------------------
  alpha Z        PSCENC =         3.45035016
  Ewald energy   TEWEN  =      -215.59241578
  -Hartree energ DENC   =     -2367.56795864
  -exchange      EXHF   =         0.00000000
  -V(xc)+E(xc)   XCENC  =       107.95309325
  PAW double counting   =      2575.30472255    -2536.27816963
  entropy T*S    EENTRO =        -0.07161191
  eigenvalues    EBANDS =      -686.15987934
  atomic energy  EATOM  =      3110.24030960
  Solvation  Ediel_sol  =         0.00000000
  ---------------------------------------------------
  free energy    TOTEN  =        -8.72155973 eV

  energy without entropy =       -8.64994782  energy(sigma->0) =       -8.68575377


--------------------------------------------------------------------------------------------------------




--------------------------------------- Iteration      1(   7)  ---------------------------------------


    POTLOK:  cpu time    0.0583: real time    0.0587
    SETDIJ:  cpu time    0.0031: real time    0.0031
     EDDAV:  cpu time    0.7448: real time    0.7500
       DOS:  cpu time    0.0004: real time    0.0004
    CHARGE:  cpu time    0.0608: real time    0.0619
    MIXING:  cpu time    0.0016: real time    0.0023
    --------------------------------------------
      LOOP:  cpu time    0.8691: real time    0.8765

 eigenvalue-minimisations  :  1184
 total energy-change (2. order) : 0.2042905E+00  (-0.6731223E-01)
 number of electron      25.9999936 magnetization       2.2823548
 augmentation part        2.5897893 magnetization      -0.2664140

 Broyden mixing:
  rms(total) = 0.16341E+00    rms(broyden)= 0.16260E+00
  rms(prec ) = 0.18171E+00
  weight for this iteration     100.00

 eigenvalues of (default mixing * dielectric matrix)
  average eigenvalue GAMMA=   0.8759
  0.9455  0.8063

 Free energy of the ion-electron system (eV)
  ---------------------------------------------------
  alpha Z        PSCENC =         3.45035016
  Ewald energy   TEWEN  =      -215.59241578
  -Hartree energ DENC   =     -2372.74131231
  -exchange      EXHF   =         0.00000000
  -V(xc)+E(xc)   XCENC  =       107.96020721
  PAW double counting   =      2620.03642687    -2580.16723804
  entropy T*S    EENTRO =        -0.14249894
  eigenvalues    EBANDS =      -681.56109799
  atomic energy  EATOM  =      3110.24030960
  Solvation  Ediel_sol  =         0.00000000
  ---------------------------------------------------
  free energy    TOTEN  =        -8.51726922 eV

  energy without entropy =       -8.37477028  energy(sigma->0) =       -8.44601975


--------------------------------------------------------------------------------------------------------




--------------------------------------- Iteration      1(   8)  ---------------------------------------


    POTLOK:  cpu time    0.0591: real time    0.0595
    SETDIJ:  cpu time    0.0034: real time    0.0034
     EDDAV:  cpu time    0.6987: real time    0.7028
       DOS:  cpu time    0.0004: real time    0.0004
    CHARGE:  cpu time    0.0514: real time    0.0525
    MIXING:  cpu time    0.0014: real time    0.0018
    --------------------------------------------
      LOOP:  cpu time    0.8144: real time    0.8204

 eigenvalue-minimisations  :  1120
 total energy-change (2. order) : 0.4350562E-01  (-0.9910236E-02)
 number of electron      25.9999936 magnetization       2.4158724
 augmentation part        2.5755727 magnetization      -0.8383840

 Broyden mixing:
  rms(total) = 0.20115E+00    rms(broyden)= 0.20004E+00
  rms(prec ) = 0.21136E+00
  weight for this iteration     100.00

 eigenvalues of (default mixing * dielectric matrix)
  average eigenvalue GAMMA=   0.7103
  0.9006  0.9006  0.3298

 Free energy of the ion-electron system (eV)
  ---------------------------------------------------
  alpha Z        PSCENC =         3.45035016
  Ewald energy   TEWEN  =      -215.59241578
  -Hartree energ DENC   =     -2374.96984658
  -exchange      EXHF   =         0.00000000
  -V(xc)+E(xc)   XCENC  =       108.15910720
  PAW double counting   =      2632.06195977    -2591.70968781
  entropy T*S    EENTRO =        -0.18494852
  eigenvalues    EBANDS =      -679.92859166
  atomic energy  EATOM  =      3110.24030960
  Solvation  Ediel_sol  =         0.00000000
  ---------------------------------------------------
  free energy    TOTEN  =        -8.47376361 eV

  energy without entropy =       -8.28881509  energy(sigma->0) =       -8.38128935


--------------------------------------------------------------------------------------------------------




--------------------------------------- Iteration      1(   9)  ---------------------------------------


    POTLOK:  cpu time    0.0580: real time    0.0584
    SETDIJ:  cpu time    0.0032: real time    0.0032
     EDDAV:  cpu time    0.7863: real time    0.7908
       DOS:  cpu time    0.0004: real time    0.0004
    CHARGE:  cpu time    0.0490: real time    0.0503
    MIXING:  cpu time    0.0014: real time    0.0017
    --------------------------------------------
      LOOP:  cpu time    0.8983: real time    0.9047

 eigenvalue-minimisations  :  1280
 total energy-change (2. order) : 0.3489404E-01  (-0.2681920E-02)
 number of electron      25.9999936 magnetization       2.4504658
 augmentation part        2.5730172 magnetization      -0.9785100

 Broyden mixing:
  rms(total) = 0.19399E+00    rms(broyden)= 0.19377E+00
  rms(prec ) = 0.20655E+00
  weight for this iteration     100.00

 eigenvalues of (default mixing * dielectric matrix)
  average eigenvalue GAMMA=   0.8778
  1.0274  1.0274  0.7281  0.7281

 Free energy of the ion-electron system (eV)
  ---------------------------------------------------
  alpha Z        PSCENC =         3.45035016
  Ewald energy   TEWEN  =      -215.59241578
  -Hartree energ DENC   =     -2375.51884310
  -exchange      EXHF   =         0.00000000
  -V(xc)+E(xc)   XCENC  =       108.26260233
  PAW double counting   =      2633.10769276    -2592.62221308
  entropy T*S    EENTRO =        -0.18301375
  eigenvalues    EBANDS =      -679.58333870
  atomic energy  EATOM  =      3110.24030960
  Solvation  Ediel_sol  =         0.00000000
  ---------------------------------------------------
  free energy    TOTEN  =        -8.43886956 eV

  energy without entropy =       -8.25585581  energy(sigma->0) =       -8.34736269


--------------------------------------------------------------------------------------------------------




--------------------------------------- Iteration      1(  10)  ---------------------------------------


    POTLOK:  cpu time    0.0584: real time    0.0587
    SETDIJ:  cpu time    0.0031: real time    0.0031
     EDDAV:  cpu time    0.7338: real time    0.7384
       DOS:  cpu time    0.0004: real time    0.0004
    CHARGE:  cpu time    0.0483: real time    0.0492
    MIXING:  cpu time    0.0015: real time    0.0015
    --------------------------------------------
      LOOP:  cpu time    0.8455: real time    0.8513

 eigenvalue-minimisations  :  1184
 total energy-change (2. order) : 0.1517690E-01  (-0.2153069E-03)
 number of electron      25.9999937 magnetization       3.4826467
 augmentation part        2.5702389 magnetization       0.0224315

 Broyden mixing:
  rms(total) = 0.19084E+00    rms(broyden)= 0.19082E+00
  rms(prec ) = 0.20350E+00
  weight for this iteration     100.00

 eigenvalues of (default mixing * dielectric matrix)
  average eigenvalue GAMMA=   1.1668
  1.7237  1.7237  0.9103  0.9103  0.5662

 Free energy of the ion-electron system (eV)
  ---------------------------------------------------
  alpha Z        PSCENC =         3.45035016
  Ewald energy   TEWEN  =      -215.59241578
  -Hartree energ DENC   =     -2375.74443300
  -exchange      EXHF   =         0.00000000
  -V(xc)+E(xc)   XCENC  =       108.29208807
  PAW double counting   =      2633.81473992    -2593.30181439
  entropy T*S    EENTRO =        -0.18236251
  eigenvalues    EBANDS =      -679.40015476
  atomic energy  EATOM  =      3110.24030960
  Solvation  Ediel_sol  =         0.00000000
  ---------------------------------------------------
  free energy    TOTEN  =        -8.42369267 eV

  energy without entropy =       -8.24133016  energy(sigma->0) =       -8.33251142


--------------------------------------------------------------------------------------------------------




--------------------------------------- Iteration      1(  11)  ---------------------------------------


    POTLOK:  cpu time    0.0588: real time    0.0592
    SETDIJ:  cpu time    0.0031: real time    0.0032
     EDDAV:  cpu time    0.6578: real time    0.6611
       DOS:  cpu time    0.0006: real time    0.0005
    CHARGE:  cpu time    0.0489: real time    0.0501
    MIXING:  cpu time    0.0016: real time    0.0016
    --------------------------------------------
      LOOP:  cpu time    0.7709: real time    0.7757

 eigenvalue-minimisations  :  1040
 total energy-change (2. order) : 0.3623859E+00  (-0.5007262E-01)
 number of electron      25.9999939 magnetization       3.7194008
 augmentation part        2.4971806 magnetization      -0.1755598

 Broyden mixing:
  rms(total) = 0.75207E-01    rms(broyden)= 0.74060E-01
  rms(prec ) = 0.82945E-01
  weight for this iteration     100.00

 eigenvalues of (default mixing * dielectric matrix)
  average eigenvalue GAMMA=   1.1661
  1.7438  1.7438  1.5094  0.6883  0.6883  0.6230

 Free energy of the ion-electron system (eV)
  ---------------------------------------------------
  alpha Z        PSCENC =         3.45035016
  Ewald energy   TEWEN  =      -215.59241578
  -Hartree energ DENC   =     -2382.29224005
  -exchange      EXHF   =         0.00000000
  -V(xc)+E(xc)   XCENC  =       109.13577972
  PAW double counting   =      2658.00951916    -2616.33169334
  entropy T*S    EENTRO =        -0.16692050
  eigenvalues    EBANDS =      -674.51399577
  atomic energy  EATOM  =      3110.24030960
  Solvation  Ediel_sol  =         0.00000000
  ---------------------------------------------------
  free energy    TOTEN  =        -8.06130678 eV

  energy without entropy =       -7.89438628  energy(sigma->0) =       -7.97784653


--------------------------------------------------------------------------------------------------------




--------------------------------------- Iteration      1(  12)  ---------------------------------------


    POTLOK:  cpu time    0.0582: real time    0.0586
    SETDIJ:  cpu time    0.0031: real time    0.0031
     EDDAV:  cpu time    0.6984: real time    0.7028
       DOS:  cpu time    0.0004: real time    0.0004
    CHARGE:  cpu time    0.0498: real time    0.0512
    MIXING:  cpu time    0.0017: real time    0.0017
    --------------------------------------------
      LOOP:  cpu time    0.8116: real time    0.8178

 eigenvalue-minimisations  :  1120
 total energy-change (2. order) :-0.2402772E+00  (-0.6310636E-02)
 number of electron      25.9999939 magnetization       3.8428155
 augmentation part        2.4794450 magnetization      -0.1673559

 Broyden mixing:
  rms(total) = 0.52689E-01    rms(broyden)= 0.52345E-01
  rms(prec ) = 0.59550E-01
  weight for this iteration     100.00

 eigenvalues of (default mixing * dielectric matrix)
  average eigenvalue GAMMA=   1.2160
  1.8003  1.8003  1.9517  1.0555  0.7011  0.6354  0.5674

 Free energy of the ion-electron system (eV)
  ---------------------------------------------------
  alpha Z        PSCENC =         3.45035016
  Ewald energy   TEWEN  =      -215.59241578
  -Hartree energ DENC   =     -2382.69067392
  -exchange      EXHF   =         0.00000000
  -V(xc)+E(xc)   XCENC  =       108.98580104
  PAW double counting   =      2666.77130435    -2624.69506221
  entropy T*S    EENTRO =        -0.17610375
  eigenvalues    EBANDS =      -674.59509347
  atomic energy  EATOM  =      3110.24030960
  Solvation  Ediel_sol  =         0.00000000
  ---------------------------------------------------
  free energy    TOTEN  =        -8.30158397 eV

  energy without entropy =       -8.12548022  energy(sigma->0) =       -8.21353209


--------------------------------------------------------------------------------------------------------




--------------------------------------- Iteration      1(  13)  ---------------------------------------


    POTLOK:  cpu time    0.0582: real time    0.0586
    SETDIJ:  cpu time    0.0031: real time    0.0031
     EDDAV:  cpu time    0.6619: real time    0.6656
       DOS:  cpu time    0.0004: real time    0.0004
    CHARGE:  cpu time    0.0489: real time    0.0502
    MIXING:  cpu time    0.0019: real time    0.0019
    --------------------------------------------
      LOOP:  cpu time    0.7745: real time    0.7799

 eigenvalue-minimisations  :  1056
 total energy-change (2. order) :-0.2592476E+00  (-0.1057921E-01)
 number of electron      25.9999939 magnetization       4.0979897
 augmentation part        2.4958322 magnetization       0.0106992

 Broyden mixing:
  rms(total) = 0.39880E-01    rms(broyden)= 0.39789E-01
  rms(prec ) = 0.43221E-01
  weight for this iteration     100.00

 eigenvalues of (default mixing * dielectric matrix)
  average eigenvalue GAMMA=   1.1779
  1.6395  1.6395  1.6010  1.5611  1.0066  0.7347  0.6756  0.5651

 Free energy of the ion-electron system (eV)
  ---------------------------------------------------
  alpha Z        PSCENC =         3.45035016
  Ewald energy   TEWEN  =      -215.59241578
  -Hartree energ DENC   =     -2381.13116820
  -exchange      EXHF   =         0.00000000
  -V(xc)+E(xc)   XCENC  =       108.72301668
  PAW double counting   =      2664.64444079    -2622.20951717
  entropy T*S    EENTRO =        -0.18846702
  eigenvalues    EBANDS =      -676.49738068
  atomic energy  EATOM  =      3110.24030960
  Solvation  Ediel_sol  =         0.00000000
  ---------------------------------------------------
  free energy    TOTEN  =        -8.56083160 eV

  energy without entropy =       -8.37236459  energy(sigma->0) =       -8.46659809


--------------------------------------------------------------------------------------------------------




--------------------------------------- Iteration      1(  14)  ---------------------------------------


    POTLOK:  cpu time    0.0581: real time    0.0585
    SETDIJ:  cpu time    0.0031: real time    0.0031
     EDDAV:  cpu time    0.7725: real time    0.7766
       DOS:  cpu time    0.0003: real time    0.0003
    CHARGE:  cpu time    0.0503: real time    0.0515
    MIXING:  cpu time    0.0019: real time    0.0019
    --------------------------------------------
      LOOP:  cpu time    0.8863: real time    0.8919

 eigenvalue-minimisations  :  1248
 total energy-change (2. order) :-0.7658081E-01  (-0.1704327E-02)
 number of electron      25.9999939 magnetization       4.1327669
 augmentation part        2.4774909 magnetization      -0.0728254

 Broyden mixing:
  rms(total) = 0.29148E-01    rms(broyden)= 0.28962E-01
  rms(prec ) = 0.33813E-01
  weight for this iteration     100.00

 eigenvalues of (default mixing * dielectric matrix)
  average eigenvalue GAMMA=   1.1859
  1.7134  1.7134  1.8791  1.8791  0.8078  0.8078  0.6641  0.6641  0.5444

 Free energy of the ion-electron system (eV)
  ---------------------------------------------------
  alpha Z        PSCENC =         3.45035016
  Ewald energy   TEWEN  =      -215.59241578
  -Hartree energ DENC   =     -2381.87850592
  -exchange      EXHF   =         0.00000000
  -V(xc)+E(xc)   XCENC  =       108.76089422
  PAW double counting   =      2662.21460631    -2619.43822558
  entropy T*S    EENTRO =        -0.19730717
  eigenvalues    EBANDS =      -676.19711826
  atomic energy  EATOM  =      3110.24030960
  Solvation  Ediel_sol  =         0.00000000
  ---------------------------------------------------
  free energy    TOTEN  =        -8.63741242 eV

  energy without entropy =       -8.44010524  energy(sigma->0) =       -8.53875883


--------------------------------------------------------------------------------------------------------




--------------------------------------- Iteration      1(  15)  ---------------------------------------


    POTLOK:  cpu time    0.0583: real time    0.0586
    SETDIJ:  cpu time    0.0032: real time    0.0032
     EDDAV:  cpu time    0.7036: real time    0.7072
       DOS:  cpu time    0.0004: real time    0.0004
    CHARGE:  cpu time    0.0517: real time    0.0531
    MIXING:  cpu time    0.0020: real time    0.0020
    --------------------------------------------
      LOOP:  cpu time    0.8192: real time    0.8246

 eigenvalue-minimisations  :  1136
 total energy-change (2. order) :-0.6622084E-01  (-0.1783241E-02)
 number of electron      25.9999939 magnetization       4.3896601
 augmentation part        2.4858258 magnetization       0.1522494

 Broyden mixing:
  rms(total) = 0.23770E-01    rms(broyden)= 0.23710E-01
  rms(prec ) = 0.25964E-01
  weight for this iteration     100.00

 eigenvalues of (default mixing * dielectric matrix)
  average eigenvalue GAMMA=   1.3551
  2.5691  2.5691  1.6510  1.6510  1.7036  0.8012  0.8012  0.6215  0.6215  0.5617

 Free energy of the ion-electron system (eV)
  ---------------------------------------------------
  alpha Z        PSCENC =         3.45035016
  Ewald energy   TEWEN  =      -215.59241578
  -Hartree energ DENC   =     -2380.84592169
  -exchange      EXHF   =         0.00000000
  -V(xc)+E(xc)   XCENC  =       108.67031748
  PAW double counting   =      2655.78562368    -2612.93967798
  entropy T*S    EENTRO =        -0.20215840
  eigenvalues    EBANDS =      -677.27006033
  atomic energy  EATOM  =      3110.24030960
  Solvation  Ediel_sol  =         0.00000000
  ---------------------------------------------------
  free energy    TOTEN  =        -8.70363325 eV

  energy without entropy =       -8.50147485  energy(sigma->0) =       -8.60255405


--------------------------------------------------------------------------------------------------------




--------------------------------------- Iteration      1(  16)  ---------------------------------------


    POTLOK:  cpu time    0.0582: real time    0.0584
    SETDIJ:  cpu time    0.0031: real time    0.0031
     EDDAV:  cpu time    0.7059: real time    0.7093
       DOS:  cpu time    0.0003: real time    0.0003
    CHARGE:  cpu time    0.0485: real time    0.0493
    MIXING:  cpu time    0.0024: real time    0.0027
    --------------------------------------------
      LOOP:  cpu time    0.8183: real time    0.8232

 eigenvalue-minimisations  :  1136
 total energy-change (2. order) :-0.5300475E-01  (-0.1429215E-02)
 number of electron      25.9999939 magnetization       4.5294057
 augmentation part        2.4749051 magnetization       0.1336541

 Broyden mixing:
  rms(total) = 0.18347E-01    rms(broyden)= 0.17943E-01
  rms(prec ) = 0.20080E-01
  weight for this iteration     100.00

 eigenvalues of (default mixing * dielectric matrix)
  average eigenvalue GAMMA=   1.4264
  3.2413  3.2413  1.6882  1.6882  1.8099  0.7875  0.7875  0.7729  0.6176  0.5545
  0.5020

 Free energy of the ion-electron system (eV)
  ---------------------------------------------------
  alpha Z        PSCENC =         3.45035016
  Ewald energy   TEWEN  =      -215.59241578
  -Hartree energ DENC   =     -2380.48472677
  -exchange      EXHF   =         0.00000000
  -V(xc)+E(xc)   XCENC  =       108.68303214
  PAW double counting   =      2648.97268819    -2605.86067986
  entropy T*S    EENTRO =        -0.21555645
  eigenvalues    EBANDS =      -677.94963924
  atomic energy  EATOM  =      3110.24030960
  Solvation  Ediel_sol  =         0.00000000
  ---------------------------------------------------
  free energy    TOTEN  =        -8.75663801 eV

  energy without entropy =       -8.54108155  energy(sigma->0) =       -8.64885978


--------------------------------------------------------------------------------------------------------




--------------------------------------- Iteration      1(  17)  ---------------------------------------


    POTLOK:  cpu time    0.0636: real time    0.0640
    SETDIJ:  cpu time    0.0035: real time    0.0035
     EDDAV:  cpu time    0.7196: real time    0.7233
       DOS:  cpu time    0.0003: real time    0.0003
    CHARGE:  cpu time    0.0500: real time    0.0509
    MIXING:  cpu time    0.0026: real time    0.0026
    --------------------------------------------
      LOOP:  cpu time    0.8396: real time    0.8446

 eigenvalue-minimisations  :  1120
 total energy-change (2. order) :-0.1203605E-01  (-0.3220704E-03)
 number of electron      25.9999939 magnetization       4.5778963
 augmentation part        2.4709976 magnetization       0.0903154

 Broyden mixing:
  rms(total) = 0.16175E-01    rms(broyden)= 0.15938E-01
  rms(prec ) = 0.18059E-01
  weight for this iteration     100.00

 eigenvalues of (default mixing * dielectric matrix)
  average eigenvalue GAMMA=   1.3498
  3.3603  3.3603  1.6912  1.6912  1.7939  0.7842  0.7842  0.7703  0.6226  0.5535
  0.3928  0.3928

 Free energy of the ion-electron system (eV)
  ---------------------------------------------------
  alpha Z        PSCENC =         3.45035016
  Ewald energy   TEWEN  =      -215.59241578
  -Hartree energ DENC   =     -2380.38951073
  -exchange      EXHF   =         0.00000000
  -V(xc)+E(xc)   XCENC  =       108.70763381
  PAW double counting   =      2648.14873861    -2604.89899837
  entropy T*S    EENTRO =        -0.22292335
  eigenvalues    EBANDS =      -678.21185802
  atomic energy  EATOM  =      3110.24030960
  Solvation  Ediel_sol  =         0.00000000
  ---------------------------------------------------
  free energy    TOTEN  =        -8.76867406 eV

  energy without entropy =       -8.54575071  energy(sigma->0) =       -8.65721238


--------------------------------------------------------------------------------------------------------




--------------------------------------- Iteration      1(  18)  ---------------------------------------


    POTLOK:  cpu time    0.0590: real time    0.0593
    SETDIJ:  cpu time    0.0032: real time    0.0032
     EDDAV:  cpu time    0.7167: real time    0.7194
       DOS:  cpu time    0.0004: real time    0.0004
    CHARGE:  cpu time    0.0486: real time    0.0499
    MIXING:  cpu time    0.0024: real time    0.0024
    --------------------------------------------
      LOOP:  cpu time    0.8302: real time    0.8346

 eigenvalue-minimisations  :  1152
 total energy-change (2. order) :-0.3758055E-02  (-0.9006115E-04)
 number of electron      25.9999939 magnetization       4.7493199
 augmentation part        2.4702100 magnetization       0.2250228

 Broyden mixing:
  rms(total) = 0.13855E-01    rms(broyden)= 0.13786E-01
  rms(prec ) = 0.15469E-01
  weight for this iteration     100.00

 eigenvalues of (default mixing * dielectric matrix)
  average eigenvalue GAMMA=   1.5973
  5.8911  3.3161  1.7172  1.7172  1.9432  1.0747  1.0747  0.7788  0.7788  0.6929
  0.6177  0.6177  0.5450

 Free energy of the ion-electron system (eV)
  ---------------------------------------------------
  alpha Z        PSCENC =         3.45035016
  Ewald energy   TEWEN  =      -215.59241578
  -Hartree energ DENC   =     -2380.24320699
  -exchange      EXHF   =         0.00000000
  -V(xc)+E(xc)   XCENC  =       108.71272378
  PAW double counting   =      2648.43957095    -2605.16067965
  entropy T*S    EENTRO =        -0.22584994
  eigenvalues    EBANDS =      -678.39323426
  atomic energy  EATOM  =      3110.24030960
  Solvation  Ediel_sol  =         0.00000000
  ---------------------------------------------------
  free energy    TOTEN  =        -8.77243211 eV

  energy without entropy =       -8.54658217  energy(sigma->0) =       -8.65950714


--------------------------------------------------------------------------------------------------------




--------------------------------------- Iteration      1(  19)  ---------------------------------------


    POTLOK:  cpu time    0.0584: real time    0.0587
    SETDIJ:  cpu time    0.0031: real time    0.0031
     EDDAV:  cpu time    0.6701: real time    0.6723
       DOS:  cpu time    0.0004: real time    0.0004
    CHARGE:  cpu time    0.0490: real time    0.0506
    MIXING:  cpu time    0.0025: real time    0.0025
    --------------------------------------------
      LOOP:  cpu time    0.7835: real time    0.7877

 eigenvalue-minimisations  :  1072
 total energy-change (2. order) :-0.8985350E-02  (-0.7117233E-03)
 number of electron      25.9999938 magnetization       4.9010382
 augmentation part        2.4669824 magnetization       0.2327878

 Broyden mixing:
  rms(total) = 0.11202E-01    rms(broyden)= 0.10641E-01
  rms(prec ) = 0.11504E-01
  weight for this iteration     100.00

 eigenvalues of (default mixing * dielectric matrix)
  average eigenvalue GAMMA=   1.8797
  9.3903  2.8769  2.8769  1.7125  1.7125  1.4651  1.4651  0.7961  0.7961  0.8091
  0.5515  0.6076  0.6076  0.6492

 Free energy of the ion-electron system (eV)
  ---------------------------------------------------
  alpha Z        PSCENC =         3.45035016
  Ewald energy   TEWEN  =      -215.59241578
  -Hartree energ DENC   =     -2379.76223974
  -exchange      EXHF   =         0.00000000
  -V(xc)+E(xc)   XCENC  =       108.73354267
  PAW double counting   =      2650.94869074    -2607.54667030
  entropy T*S    EENTRO =        -0.23617454
  eigenvalues    EBANDS =      -679.01681028
  atomic energy  EATOM  =      3110.24030960
  Solvation  Ediel_sol  =         0.00000000
  ---------------------------------------------------
  free energy    TOTEN  =        -8.78141746 eV

  energy without entropy =       -8.54524292  energy(sigma->0) =       -8.66333019


--------------------------------------------------------------------------------------------------------




--------------------------------------- Iteration      1(  20)  ---------------------------------------


    POTLOK:  cpu time    0.0579: real time    0.0582
    SETDIJ:  cpu time    0.0031: real time    0.0031
     EDDAV:  cpu time    0.7175: real time    0.7202
       DOS:  cpu time    0.0004: real time    0.0004
    CHARGE:  cpu time    0.0487: real time    0.0497
    MIXING:  cpu time    0.0031: real time    0.0031
    --------------------------------------------
      LOOP:  cpu time    0.8307: real time    0.8347

 eigenvalue-minimisations  :  1152
 total energy-change (2. order) :-0.6015989E-02  (-0.4792846E-03)
 number of electron      25.9999938 magnetization       5.0199022
 augmentation part        2.4613271 magnetization       0.2051447

 Broyden mixing:
  rms(total) = 0.12614E-01    rms(broyden)= 0.12008E-01
  rms(prec ) = 0.12988E-01
  weight for this iteration     100.00

 eigenvalues of (default mixing * dielectric matrix)
  average eigenvalue GAMMA=   2.0273
 12.7464  2.9289  2.9289  1.7081  1.7081  1.6725  1.3566  0.7715  0.7715  0.7977
  0.6328  0.6328  0.5397  0.6174  0.5963

 Free energy of the ion-electron system (eV)
  ---------------------------------------------------
  alpha Z        PSCENC =         3.45035016
  Ewald energy   TEWEN  =      -215.59241578
  -Hartree energ DENC   =     -2379.68042703
  -exchange      EXHF   =         0.00000000
  -V(xc)+E(xc)   XCENC  =       108.76719514
  PAW double counting   =      2655.22926558    -2611.69777644
  entropy T*S    EENTRO =        -0.24410163
  eigenvalues    EBANDS =      -679.25983307
  atomic energy  EATOM  =      3110.24030960
  Solvation  Ediel_sol  =         0.00000000
  ---------------------------------------------------
  free energy    TOTEN  =        -8.78743345 eV

  energy without entropy =       -8.54333182  energy(sigma->0) =       -8.66538263


--------------------------------------------------------------------------------------------------------




--------------------------------------- Iteration      1(  21)  ---------------------------------------


    POTLOK:  cpu time    0.0578: real time    0.0581
    SETDIJ:  cpu time    0.0031: real time    0.0032
     EDDAV:  cpu time    0.7277: real time    0.7304
       DOS:  cpu time    0.0004: real time    0.0004
    CHARGE:  cpu time    0.0486: real time    0.0493
    MIXING:  cpu time    0.0031: real time    0.0031
    --------------------------------------------
      LOOP:  cpu time    0.8407: real time    0.8444

 eigenvalue-minimisations  :  1168
 total energy-change (2. order) :-0.2131464E-02  (-0.2283881E-03)
 number of electron      25.9999938 magnetization       5.0460563
 augmentation part        2.4567824 magnetization       0.1217855

 Broyden mixing:
  rms(total) = 0.12131E-01    rms(broyden)= 0.11718E-01
  rms(prec ) = 0.12726E-01
  weight for this iteration     100.00

 eigenvalues of (default mixing * dielectric matrix)
  average eigenvalue GAMMA=   1.9986
 13.9432  2.9178  2.9178  1.7071  1.7071  1.7546  1.3254  0.7765  0.7765  0.7992
  0.6362  0.5587  0.5515  0.5515  0.5269  0.5269

 Free energy of the ion-electron system (eV)
  ---------------------------------------------------
  alpha Z        PSCENC =         3.45035016
  Ewald energy   TEWEN  =      -215.59241578
  -Hartree energ DENC   =     -2379.66038354
  -exchange      EXHF   =         0.00000000
  -V(xc)+E(xc)   XCENC  =       108.79985539
  PAW double counting   =      2657.18287690    -2613.55276524
  entropy T*S    EENTRO =        -0.24893582
  eigenvalues    EBANDS =      -679.40845660
  atomic energy  EATOM  =      3110.24030960
  Solvation  Ediel_sol  =         0.00000000
  ---------------------------------------------------
  free energy    TOTEN  =        -8.78956491 eV

  energy without entropy =       -8.54062909  energy(sigma->0) =       -8.66509700


--------------------------------------------------------------------------------------------------------




--------------------------------------- Iteration      1(  22)  ---------------------------------------


    POTLOK:  cpu time    0.0580: real time    0.0583
    SETDIJ:  cpu time    0.0032: real time    0.0032
     EDDAV:  cpu time    0.6485: real time    0.6515
       DOS:  cpu time    0.0004: real time    0.0004
    CHARGE:  cpu time    0.0486: real time    0.0491
    MIXING:  cpu time    0.0030: real time    0.0032
    --------------------------------------------
      LOOP:  cpu time    0.7616: real time    0.7656

 eigenvalue-minimisations  :  1024
 total energy-change (2. order) :-0.4795202E-03  (-0.2380208E-04)
 number of electron      25.9999938 magnetization       5.1155815
 augmentation part        2.4561379 magnetization       0.1671431

 Broyden mixing:
  rms(total) = 0.11345E-01    rms(broyden)= 0.11284E-01
  rms(prec ) = 0.12253E-01
  weight for this iteration     100.00

 eigenvalues of (default mixing * dielectric matrix)
  average eigenvalue GAMMA=   2.2174
 17.7212  3.2363  2.6459  1.7045  1.7045  1.9592  1.3576  0.9970  0.9970  0.8075
  0.8075  0.7833  0.6211  0.6211  0.6207  0.5749  0.5359

 Free energy of the ion-electron system (eV)
  ---------------------------------------------------
  alpha Z        PSCENC =         3.45035016
  Ewald energy   TEWEN  =      -215.59241578
  -Hartree energ DENC   =     -2379.65252244
  -exchange      EXHF   =         0.00000000
  -V(xc)+E(xc)   XCENC  =       108.80725303
  PAW double counting   =      2657.51117123    -2613.86003249
  entropy T*S    EENTRO =        -0.24989276
  eigenvalues    EBANDS =      -679.44426499
  atomic energy  EATOM  =      3110.24030960
  Solvation  Ediel_sol  =         0.00000000
  ---------------------------------------------------
  free energy    TOTEN  =        -8.79004443 eV

  energy without entropy =       -8.54015167  energy(sigma->0) =       -8.66509805


--------------------------------------------------------------------------------------------------------




--------------------------------------- Iteration      1(  23)  ---------------------------------------


    POTLOK:  cpu time    0.0577: real time    0.0580
    SETDIJ:  cpu time    0.0031: real time    0.0031
     EDDAV:  cpu time    0.6383: real time    0.6404
       DOS:  cpu time    0.0003: real time    0.0003
    CHARGE:  cpu time    0.0482: real time    0.0489
    MIXING:  cpu time    0.0030: real time    0.0030
    --------------------------------------------
      LOOP:  cpu time    0.7507: real time    0.7539

 eigenvalue-minimisations  :  1008
 total energy-change (2. order) :-0.4708504E-03  (-0.1078243E-03)
 number of electron      25.9999938 magnetization       5.2699737
 augmentation part        2.4531468 magnetization       0.2443101

 Broyden mixing:
  rms(total) = 0.11700E-01    rms(broyden)= 0.11552E-01
  rms(prec ) = 0.12548E-01
  weight for this iteration     100.00

 eigenvalues of (default mixing * dielectric matrix)
  average eigenvalue GAMMA=   2.4725
 23.1700  3.1915  2.9426  1.7024  1.7024  1.9233  1.2879  1.2879  1.3719  0.7981
  0.7981  0.8300  0.6311  0.6311  0.6359  0.5766  0.5202  0.5042

 Free energy of the ion-electron system (eV)
  ---------------------------------------------------
  alpha Z        PSCENC =         3.45035016
  Ewald energy   TEWEN  =      -215.59241578
  -Hartree energ DENC   =     -2379.66952594
  -exchange      EXHF   =         0.00000000
  -V(xc)+E(xc)   XCENC  =       108.82888242
  PAW double counting   =      2658.78571908    -2615.08593018
  entropy T*S    EENTRO =        -0.25258870
  eigenvalues    EBANDS =      -679.49531596
  atomic energy  EATOM  =      3110.24030960
  Solvation  Ediel_sol  =         0.00000000
  ---------------------------------------------------
  free energy    TOTEN  =        -8.79051528 eV

  energy without entropy =       -8.53792659  energy(sigma->0) =       -8.66422094


--------------------------------------------------------------------------------------------------------




--------------------------------------- Iteration      1(  24)  ---------------------------------------


    POTLOK:  cpu time    0.0583: real time    0.0586
    SETDIJ:  cpu time    0.0032: real time    0.0032
     EDDAV:  cpu time    0.5826: real time    0.5847
       DOS:  cpu time    0.0003: real time    0.0003
    CHARGE:  cpu time    0.0489: real time    0.0496
    MIXING:  cpu time    0.0033: real time    0.0033
    --------------------------------------------
      LOOP:  cpu time    0.6966: real time    0.6997

 eigenvalue-minimisations  :   896
 total energy-change (2. order) :-0.5894182E-03  (-0.4160184E-03)
 number of electron      25.9999938 magnetization       4.9556100
 augmentation part        2.4473674 magnetization      -0.2264123

 Broyden mixing:
  rms(total) = 0.13263E-01    rms(broyden)= 0.12762E-01
  rms(prec ) = 0.13839E-01
  weight for this iteration     100.00

 eigenvalues of (default mixing * dielectric matrix)
  average eigenvalue GAMMA=   2.3875
 23.8961  3.2491  2.8850  1.7023  1.7023  1.9322  1.3136  1.3136  1.3715  0.7971
  0.7971  0.8279  0.6317  0.6317  0.6355  0.5797  0.5317  0.4713  0.0932

 Free energy of the ion-electron system (eV)
  ---------------------------------------------------
  alpha Z        PSCENC =         3.45035016
  Ewald energy   TEWEN  =      -215.59241578
  -Hartree energ DENC   =     -2379.67736824
  -exchange      EXHF   =         0.00000000
  -V(xc)+E(xc)   XCENC  =       108.87747734
  PAW double counting   =      2661.03565838    -2617.21573355
  entropy T*S    EENTRO =        -0.25659383
  eigenvalues    EBANDS =      -679.65278880
  atomic energy  EATOM  =      3110.24030960
  Solvation  Ediel_sol  =         0.00000000
  ---------------------------------------------------
  free energy    TOTEN  =        -8.79110470 eV

  energy without entropy =       -8.53451088  energy(sigma->0) =       -8.66280779


--------------------------------------------------------------------------------------------------------




--------------------------------------- Iteration      1(  25)  ---------------------------------------


    POTLOK:  cpu time    0.0577: real time    0.0580
    SETDIJ:  cpu time    0.0031: real time    0.0031
     EDDAV:  cpu time    0.5719: real time    0.5746
       DOS:  cpu time    0.0003: real time    0.0003
    CHARGE:  cpu time    0.0487: real time    0.0496
    MIXING:  cpu time    0.0037: real time    0.0037
    --------------------------------------------
      LOOP:  cpu time    0.6854: real time    0.6894

 eigenvalue-minimisations  :   880
 total energy-change (2. order) : 0.4801102E-02  (-0.1756741E-02)
 number of electron      25.9999938 magnetization       4.8010711
 augmentation part        2.4611438 magnetization      -0.0575456

 Broyden mixing:
  rms(total) = 0.12117E-01    rms(broyden)= 0.10428E-01
  rms(prec ) = 0.11197E-01
  weight for this iteration     100.00
  WARNING: grid for Broyden might be to small

 eigenvalues of (default mixing * dielectric matrix)
  average eigenvalue GAMMA=   2.2645
 23.4867  3.2588  2.8769  1.7025  1.7025  1.9305  1.3068  1.3068  1.3719  0.7972
  0.7972  0.8272  0.6318  0.6318  0.6357  0.5791  0.5317  0.4623  0.2111  0.2419

 Free energy of the ion-electron system (eV)
  ---------------------------------------------------
  alpha Z        PSCENC =         3.45035016
  Ewald energy   TEWEN  =      -215.59241578
  -Hartree energ DENC   =     -2379.63321808
  -exchange      EXHF   =         0.00000000
  -V(xc)+E(xc)   XCENC  =       108.78083098
  PAW double counting   =      2656.34432338    -2612.75923573
  entropy T*S    EENTRO =        -0.24624673
  eigenvalues    EBANDS =      -679.37100141
  atomic energy  EATOM  =      3110.24030960
  Solvation  Ediel_sol  =         0.00000000
  ---------------------------------------------------
  free energy    TOTEN  =        -8.78630360 eV

  energy without entropy =       -8.54005687  energy(sigma->0) =       -8.66318023


--------------------------------------------------------------------------------------------------------




--------------------------------------- Iteration      1(  26)  ---------------------------------------


    POTLOK:  cpu time    0.0580: real time    0.0584
    SETDIJ:  cpu time    0.0032: real time    0.0032
     EDDAV:  cpu time    0.6990: real time    0.7014
       DOS:  cpu time    0.0004: real time    0.0004
    CHARGE:  cpu time    0.0485: real time    0.0492
    MIXING:  cpu time    0.0037: real time    0.0040
    --------------------------------------------
      LOOP:  cpu time    0.8128: real time    0.8166

 eigenvalue-minimisations  :  1120
 total energy-change (2. order) :-0.2160826E-03  (-0.5094862E-03)
 number of electron      25.9999938 magnetization       4.6629267
 augmentation part        2.4671064 magnetization      -0.0588005

 Broyden mixing:
  rms(total) = 0.14268E-01    rms(broyden)= 0.13620E-01
  rms(prec ) = 0.14711E-01
  weight for this iteration     100.00

 eigenvalues of (default mixing * dielectric matrix)
  average eigenvalue GAMMA=   2.0620
 17.3364  3.4871  3.2593  2.7477  1.7043  1.7043  2.0172  1.3054  1.3054  1.3250
  0.8520  0.7868  0.7868  0.5809  0.5809  0.6267  0.6267  0.6414  0.5849  0.5396
  0.5039

 Free energy of the ion-electron system (eV)
  ---------------------------------------------------
  alpha Z        PSCENC =         3.45035016
  Ewald energy   TEWEN  =      -215.59241578
  -Hartree energ DENC   =     -2379.65495407
  -exchange      EXHF   =         0.00000000
  -V(xc)+E(xc)   XCENC  =       108.73601099
  PAW double counting   =      2654.50332392    -2611.04373102
  entropy T*S    EENTRO =        -0.23932423
  eigenvalues    EBANDS =      -679.18608926
  atomic energy  EATOM  =      3110.24030960
  Solvation  Ediel_sol  =         0.00000000
  ---------------------------------------------------
  free energy    TOTEN  =        -8.78651968 eV

  energy without entropy =       -8.54719545  energy(sigma->0) =       -8.66685756


--------------------------------------------------------------------------------------------------------




--------------------------------------- Iteration      1(  27)  ---------------------------------------


    POTLOK:  cpu time    0.0578: real time    0.0582
    SETDIJ:  cpu time    0.0032: real time    0.0032
     EDDAV:  cpu time    0.6149: real time    0.6172
       DOS:  cpu time    0.0004: real time    0.0004
    CHARGE:  cpu time    0.0482: real time    0.0489
    MIXING:  cpu time    0.0038: real time    0.0038
    --------------------------------------------
      LOOP:  cpu time    0.7283: real time    0.7317

 eigenvalue-minimisations  :   960
 total energy-change (2. order) : 0.7842575E-03  (-0.3478731E-03)
 number of electron      25.9999938 magnetization       5.2362811
 augmentation part        2.4723284 magnetization       0.6400385

 Broyden mixing:
  rms(total) = 0.17177E-01    rms(broyden)= 0.16797E-01
  rms(prec ) = 0.18067E-01
  weight for this iteration     100.00

 eigenvalues of (default mixing * dielectric matrix)
  average eigenvalue GAMMA=   2.5265
 28.8735  3.0530  3.0530  2.1752  2.1752  1.7150  1.7150  1.9159  1.3732  1.0812
  1.0812  0.9396  0.7796  0.7796  0.6914  0.6914  0.6588  0.6054  0.6054  0.5502
  0.5968  0.4725

 Free energy of the ion-electron system (eV)
  ---------------------------------------------------
  alpha Z        PSCENC =         3.45035016
  Ewald energy   TEWEN  =      -215.59241578
  -Hartree energ DENC   =     -2379.64029037
  -exchange      EXHF   =         0.00000000
  -V(xc)+E(xc)   XCENC  =       108.69742651
  PAW double counting   =      2652.08300085    -2608.73901526
  entropy T*S    EENTRO =        -0.23157551
  eigenvalues    EBANDS =      -679.05352564
  atomic energy  EATOM  =      3110.24030960
  Solvation  Ediel_sol  =         0.00000000
  ---------------------------------------------------
  free energy    TOTEN  =        -8.78573542 eV

  energy without entropy =       -8.55415992  energy(sigma->0) =       -8.66994767


--------------------------------------------------------------------------------------------------------




--------------------------------------- Iteration      1(  28)  ---------------------------------------


    POTLOK:  cpu time    0.0581: real time    0.0586
    SETDIJ:  cpu time    0.0031: real time    0.0031
     EDDAV:  cpu time    0.5819: real time    0.5839
       DOS:  cpu time    0.0003: real time    0.0003
    CHARGE:  cpu time    0.0486: real time    0.0493
    MIXING:  cpu time    0.0040: real time    0.0040
    --------------------------------------------
      LOOP:  cpu time    0.6960: real time    0.6993

 eigenvalue-minimisations  :   896
 total energy-change (2. order) : 0.9345603E-03  (-0.6168004E-02)
 number of electron      25.9999938 magnetization       5.4500041
 augmentation part        2.4503773 magnetization       0.2916249

 Broyden mixing:
  rms(total) = 0.18048E-01    rms(broyden)= 0.14265E-01
  rms(prec ) = 0.15388E-01
  weight for this iteration     100.00
  WARNING: grid for Broyden might be to small

 eigenvalues of (default mixing * dielectric matrix)
  average eigenvalue GAMMA=   2.4718
 27.4746  3.4174  3.4174  3.0778  3.0778  1.7092  1.7092  1.8648  1.3498  0.9565
  0.9565  0.9567  0.6863  0.6863  0.7827  0.7827  0.6513  0.6113  0.6113  0.5477
  0.5591  0.5591  0.4064

 Free energy of the ion-electron system (eV)
  ---------------------------------------------------
  alpha Z        PSCENC =         3.45035016
  Ewald energy   TEWEN  =      -215.59241578
  -Hartree energ DENC   =     -2379.64179583
  -exchange      EXHF   =         0.00000000
  -V(xc)+E(xc)   XCENC  =       108.86587294
  PAW double counting   =      2659.95900226    -2616.13946665
  entropy T*S    EENTRO =        -0.25654193
  eigenvalues    EBANDS =      -679.67011564
  atomic energy  EATOM  =      3110.24030960
  Solvation  Ediel_sol  =         0.00000000
  ---------------------------------------------------
  free energy    TOTEN  =        -8.78480086 eV

  energy without entropy =       -8.52825893  energy(sigma->0) =       -8.65652990


--------------------------------------------------------------------------------------------------------




--------------------------------------- Iteration      1(  29)  ---------------------------------------


    POTLOK:  cpu time    0.0581: real time    0.0585
    SETDIJ:  cpu time    0.0031: real time    0.0031
     EDDAV:  cpu time    0.6634: real time    0.6662
       DOS:  cpu time    0.0004: real time    0.0004
    CHARGE:  cpu time    0.0497: real time    0.0504
    MIXING:  cpu time    0.0043: real time    0.0043
    --------------------------------------------
      LOOP:  cpu time    0.7791: real time    0.7829

 eigenvalue-minimisations  :  1056
 total energy-change (2. order) :-0.5170594E-02  (-0.1103537E-02)
 number of electron      25.9999938 magnetization       5.4564033
 augmentation part        2.4426527 magnetization       0.0751316

 Broyden mixing:
  rms(total) = 0.18606E-01    rms(broyden)= 0.17280E-01
  rms(prec ) = 0.18402E-01
  weight for this iteration     100.00

 eigenvalues of (default mixing * dielectric matrix)
  average eigenvalue GAMMA=   2.4436
 29.0124  3.4930  3.4930  3.0858  3.0858  1.7089  1.7089  1.8504  1.3514  0.9693
  0.9693  0.9476  0.6819  0.6819  0.7843  0.7843  0.6507  0.6131  0.6131  0.5485
  0.5584  0.5584  0.3609  0.1362

 Free energy of the ion-electron system (eV)
  ---------------------------------------------------
  alpha Z        PSCENC =         3.45035016
  Ewald energy   TEWEN  =      -215.59241578
  -Hartree energ DENC   =     -2379.68935484
  -exchange      EXHF   =         0.00000000
  -V(xc)+E(xc)   XCENC  =       108.93394681
  PAW double counting   =      2663.37219240    -2619.36671929
  entropy T*S    EENTRO =        -0.25949922
  eigenvalues    EBANDS =      -679.87878132
  atomic energy  EATOM  =      3110.24030960
  Solvation  Ediel_sol  =         0.00000000
  ---------------------------------------------------
  free energy    TOTEN  =        -8.78997146 eV

  energy without entropy =       -8.53047224  energy(sigma->0) =       -8.66022185


--------------------------------------------------------------------------------------------------------




--------------------------------------- Iteration      1(  30)  ---------------------------------------


    POTLOK:  cpu time    0.0584: real time    0.0588
    SETDIJ:  cpu time    0.0031: real time    0.0031
     EDDAV:  cpu time    0.5651: real time    0.5674
       DOS:  cpu time    0.0004: real time    0.0004
    CHARGE:  cpu time    0.0482: real time    0.0489
    MIXING:  cpu time    0.0044: real time    0.0044
    --------------------------------------------
      LOOP:  cpu time    0.6795: real time    0.6830

 eigenvalue-minimisations  :   864
 total energy-change (2. order) :-0.2940334E-02  (-0.6653378E-04)
 number of electron      25.9999938 magnetization       5.7491972
 augmentation part        2.4425002 magnetization       0.3632360

 Broyden mixing:
  rms(total) = 0.17206E-01    rms(broyden)= 0.17125E-01
  rms(prec ) = 0.18268E-01
  weight for this iteration     100.00

 eigenvalues of (default mixing * dielectric matrix)
  average eigenvalue GAMMA=   2.8194
 40.3899  3.5362  3.5362  2.9841  2.9841  1.7083  1.7083  2.0308  1.1654  1.1654
  0.7239  0.7239  0.8759  0.8759  0.7998  0.7998  0.6949  0.6949  0.5905  0.5905
  0.5960  0.5508  0.4834  0.1384  0.1384

 Free energy of the ion-electron system (eV)
  ---------------------------------------------------
[...]
     14      -3.1095      0.49521
     15      -2.3161      0.00000
     16      -1.9584      0.00000
     17      -1.9534      0.00000
     18      -1.0781      0.00000
     19      -1.0780      0.00000
     20      -1.0440      0.00000
     21      -1.0425      0.00000
     22      -0.5838      0.00000
     23      -0.2306      0.00000
     24       0.3352      0.00000
     25       0.7278      0.00000
     26       0.8546      0.00000
     27       1.0553      0.00000
     28       1.1093      0.00000
     29       1.3227      0.00000
     30       1.3792      0.00000
     31       1.4068      0.00000
     32       1.6120      0.00000

 k-point     2 :       0.3750    0.1250    0.1250
  band No.  band energies     occupation 
      1     -57.9212      1.00000
      2     -57.5133      1.00000
      3     -34.5616      1.00000
      4     -34.1918      1.00000
      5     -34.1917      1.00000
      6     -33.8879      1.00000
      7     -33.8879      1.00000
      8     -32.4049      1.00000
      9      -4.0524      1.00000
     10      -4.0238      1.00000
     11      -4.0237      1.00000
     12      -3.6903      0.99998
     13      -3.1139      0.50757
     14      -3.1097      0.49562
     15      -2.3150      0.00000
     16      -1.9581      0.00000
     17      -1.9533      0.00000
     18      -1.0869      0.00000
     19      -1.0776      0.00000
     20      -1.0737      0.00000
     21      -1.0395      0.00000
     22      -0.5818      0.00000
     23      -0.1755      0.00000
     24       0.4027      0.00000
     25       0.5929      0.00000
     26       0.8991      0.00000
     27       0.9692      0.00000
     28       1.1349      0.00000
     29       1.3215      0.00000
     30       1.3562      0.00000
     31       1.3936      0.00000
     32       1.5238      0.00000

 k-point     3 :       0.3750    0.3750    0.1250
  band No.  band energies     occupation 
      1     -57.9212      1.00000
      2     -57.5133      1.00000
      3     -34.5616      1.00000
      4     -34.1918      1.00000
      5     -34.1917      1.00000
      6     -33.8879      1.00000
      7     -33.8879      1.00000
      8     -32.4049      1.00000
      9      -4.0519      1.00000
     10      -4.0238      1.00000
     11      -4.0237      1.00000
     12      -3.6901      0.99998
     13      -3.1137      0.50690
     14      -3.1097      0.49561
     15      -2.3140      0.00000
     16      -1.9579      0.00000
     17      -1.9534      0.00000
     18      -1.0845      0.00000
     19      -1.0841      0.00000
     20      -1.0707      0.00000
     21      -1.0699      0.00000
     22      -0.5804      0.00000
     23      -0.1318      0.00000
     24       0.4519      0.00000
     25       0.6337      0.00000
     26       0.6892      0.00000
     27       0.9850      0.00000
     28       1.1400      0.00000
     29       1.2651      0.00000
     30       1.3641      0.00000
     31       1.4824      0.00000
     32       1.5346      0.00000

 k-point     4 :       0.1250    0.1250    0.3750
  band No.  band energies     occupation 
      1     -57.9212      1.00000
      2     -57.5133      1.00000
      3     -34.5616      1.00000
      4     -34.1918      1.00000
      5     -34.1917      1.00000
      6     -33.8879      1.00000
      7     -33.8879      1.00000
      8     -32.4049      1.00000
      9      -4.0499      1.00000
     10      -4.0237      1.00000
     11      -4.0236      1.00000
     12      -3.6896      0.99998
     13      -3.1140      0.50786
     14      -3.1096      0.49535
     15      -2.3395      0.00000
     16      -1.9585      0.00000
     17      -1.9535      0.00000
     18      -1.0879      0.00000
     19      -1.0878      0.00000
     20      -1.0323      0.00000
     21      -1.0312      0.00000
     22      -0.6519      0.00000
     23       0.0766      0.00000
     24       0.4323      0.00000
     25       0.4798      0.00000
     26       0.7665      0.00000
     27       0.9563      0.00000
     28       0.9900      0.00000
     29       1.2631      0.00000
     30       1.2971      0.00000
     31       1.5098      0.00000
     32       1.6238      0.00000

 k-point     5 :       0.3750    0.1250    0.3750
  band No.  band energies     occupation 
      1     -57.9212      1.00000
      2     -57.5133      1.00000
      3     -34.5616      1.00000
      4     -34.1918      1.00000
      5     -34.1917      1.00000
      6     -33.8879      1.00000
      7     -33.8878      1.00000
      8     -32.4049      1.00000
      9      -4.0494      1.00000
     10      -4.0236      1.00000
     11      -4.0236      1.00000
     12      -3.6895      0.99998
     13      -3.1138      0.50734
     14      -3.1096      0.49540
     15      -2.3382      0.00000
     16      -1.9582      0.00000
     17      -1.9534      0.00000
     18      -1.0941      0.00000
     19      -1.0873      0.00000
     20      -1.0633      0.00000
     21      -1.0284      0.00000
     22      -0.6491      0.00000
     23       0.1483      0.00000
     24       0.4062      0.00000
     25       0.6117      0.00000
     26       0.6642      0.00000
     27       0.8864      0.00000
     28       1.0225      0.00000
     29       1.1427      0.00000
     30       1.3235      0.00000
     31       1.4644      0.00000
     32       1.5893      0.00000

 k-point     6 :       0.3750    0.3750    0.3750
  band No.  band energies     occupation 
      1     -57.9212      1.00000
      2     -57.5133      1.00000
      3     -34.5616      1.00000
      4     -34.1918      1.00000
      5     -34.1918      1.00000
      6     -33.8879      1.00000
      7     -33.8879      1.00000
      8     -32.4049      1.00000
      9      -4.0491      1.00000
     10      -4.0237      1.00000
     11      -4.0237      1.00000
     12      -3.6894      0.99998
     13      -3.1138      0.50716
     14      -3.1097      0.49571
     15      -2.3369      0.00000
     16      -1.9579      0.00000
     17      -1.9536      0.00000
     18      -1.0933      0.00000
     19      -1.0931      0.00000
     20      -1.0593      0.00000
     21      -1.0584      0.00000
     22      -0.6468      0.00000
     23       0.1961      0.00000
     24       0.4682      0.00000
     25       0.5581      0.00000
     26       0.6876      0.00000
     27       0.8860      0.00000
     28       1.0150      0.00000
     29       1.0573      0.00000
     30       1.1087      0.00000
     31       1.5365      0.00000
     32       1.8870      0.00000


--------------------------------------------------------------------------------------------------------


 soft charge-density along one line, spin component           1
         0         1         2         3         4         5         6         7         8         9
 total charge-density along one line
 
 soft charge-density along one line, spin component           2
         0         1         2         3         4         5         6         7         8         9
 total charge-density along one line
 
 pseudopotential strength for first ion, spin component:           1
  6.613 -25.224   0.000   0.002   0.000  -0.000   0.003  -0.000
-25.224  13.680   0.000  -0.010   0.000  -0.000   0.001  -0.000
  0.000   0.000 -12.897  -0.000  -0.000   9.945   0.000   0.000
  0.002  -0.010  -0.000 -12.709  -0.000   0.000   9.741   0.000
  0.000   0.000  -0.000  -0.000 -12.897   0.000   0.000   9.945
 -0.000  -0.000   9.945   0.000   0.000   5.415  -0.000  -0.000
  0.003   0.001   0.000   9.741   0.000  -0.000   5.535  -0.000
 -0.000  -0.000   0.000   0.000   9.945  -0.000  -0.000   5.415
 -0.000  -0.000   0.000   0.000   0.000  -0.000  -0.000  -0.000
 -0.000  -0.000  -0.001   0.000   0.000  -0.008  -0.000  -0.000
  0.075   0.035  -0.000  -0.005  -0.000   0.000   0.001   0.000
 -0.000  -0.000   0.000   0.000  -0.001  -0.000  -0.000  -0.008
 -0.000   0.000  -0.000  -0.000   0.000   0.000   0.000  -0.000
 -0.000  -0.000   0.000   0.000   0.000  -0.000  -0.000  -0.000
 -0.000  -0.000  -0.001   0.000   0.000  -0.009  -0.000  -0.000
  0.098   0.044  -0.000  -0.007  -0.000   0.000   0.002   0.000
 -0.000  -0.000   0.000   0.000  -0.001  -0.000  -0.000  -0.009
 -0.000  -0.000  -0.000  -0.000   0.000   0.000   0.000  -0.000
 pseudopotential strength for first ion, spin component:           2
  6.613 -25.225   0.000   0.002   0.000  -0.000   0.003  -0.000
-25.225  13.680   0.000  -0.010   0.000  -0.000   0.001  -0.000
  0.000   0.000 -12.897  -0.000   0.000   9.946   0.000  -0.000
  0.002  -0.010  -0.000 -12.709  -0.000   0.000   9.741   0.000
  0.000   0.000   0.000  -0.000 -12.897  -0.000   0.000   9.946
 -0.000  -0.000   9.946   0.000  -0.000   5.415  -0.000   0.000
  0.003   0.001   0.000   9.741   0.000  -0.000   5.535  -0.000
 -0.000  -0.000  -0.000   0.000   9.946   0.000  -0.000   5.415
  0.000   0.000   0.000   0.000   0.000  -0.000  -0.000  -0.000
 -0.000  -0.000  -0.001   0.000   0.000  -0.008  -0.000  -0.000
  0.075   0.035  -0.000  -0.005  -0.000   0.000   0.001   0.000
 -0.000  -0.000   0.000   0.000  -0.001  -0.000  -0.000  -0.008
  0.000   0.000  -0.000   0.000   0.000   0.000  -0.000  -0.000
  0.000   0.000   0.000   0.000   0.000  -0.000  -0.000  -0.000
 -0.000  -0.000  -0.001   0.000   0.000  -0.009  -0.000  -0.000
  0.098   0.044  -0.000  -0.007  -0.000   0.000   0.002   0.000
 -0.000  -0.000   0.000   0.000  -0.001  -0.000  -0.000  -0.009
  0.000  -0.000  -0.000   0.000   0.000   0.000  -0.000  -0.000
 total augmentation occupancy for first ion, spin component:           1
  2.000  -0.002   0.000  -0.004   0.000   0.000  -0.006   0.000   0.000   0.000   0.143  -0.000  -0.000   0.000   0.000  -0.128
 -0.002   1.256  -0.000  -0.041   0.000  -0.000   0.066  -0.000   0.000   0.000   0.559  -0.000  -0.000   0.000   0.000  -0.201
  0.000   0.000   1.999  -0.000   0.000  -0.002   0.000   0.000   0.000  -0.147   0.000   0.000  -0.000   0.000   0.088  -0.000
 -0.004  -0.041  -0.000   1.995   0.000   0.000   0.007   0.000   0.000   0.000  -0.029   0.000   0.000   0.000  -0.000   0.005
  0.000   0.000   0.000   0.000   1.999   0.000   0.000  -0.002  -0.000   0.000   0.000  -0.147  -0.000  -0.000   0.000   0.000
 -0.000  -0.000  -0.002   0.000   0.000   0.008   0.000   0.000   0.000   0.145  -0.000   0.000   0.000   0.000  -0.047   0.000
 -0.006   0.066  -0.000   0.007   0.000  -0.000   0.009   0.000   0.000   0.000   0.138   0.000  -0.000   0.000   0.000  -0.055
  0.000   0.000   0.000  -0.000  -0.002   0.000   0.000   0.008   0.000  -0.000   0.000   0.145   0.000   0.000   0.000   0.000
  0.000   0.000  -0.000   0.000   0.000   0.000   0.000  -0.000   0.678   0.000   0.000   0.000  -0.000  -0.093   0.000   0.000
  0.000   0.000  -0.147  -0.000   0.000   0.145   0.000  -0.000   0.000   2.709   0.000   0.000   0.000   0.000  -0.890   0.000
  0.143   0.559  -0.000  -0.029   0.000  -0.000   0.138   0.000   0.000   0.000   3.299  -0.000  -0.000   0.000   0.000  -1.155
 -0.000  -0.000   0.000   0.000  -0.147   0.000  -0.000   0.145  -0.000   0.000   0.000   2.709   0.000   0.000   0.000   0.000
 -0.000  -0.000   0.000   0.000  -0.000   0.000  -0.000   0.000  -0.000   0.000  -0.000   0.000   0.680   0.000   0.000   0.000
  0.000   0.000  -0.000   0.000   0.000   0.000   0.000   0.000  -0.093   0.000   0.000  -0.000   0.000   0.013   0.000   0.000
  0.000  -0.000   0.088   0.000   0.000  -0.047   0.000   0.000   0.000  -0.890   0.000   0.000  -0.000   0.000   0.295   0.000
 -0.128  -0.201  -0.000   0.005   0.000  -0.000  -0.055   0.000   0.000   0.000  -1.155   0.000   0.000   0.000   0.000   0.440
  0.000  -0.000   0.000   0.000   0.088   0.000  -0.000  -0.047   0.000   0.000   0.000  -0.890  -0.000   0.000   0.000   0.000
  0.000   0.000  -0.000  -0.000  -0.000   0.000   0.000   0.000   0.000   0.000   0.000   0.000  -0.090   0.000   0.000  -0.000
 total augmentation occupancy for first ion, spin component:           2
  0.000   0.000   0.000   0.000   0.000   0.000   0.000   0.000   0.000   0.000  -0.000  -0.000   0.000   0.000  -0.000   0.000
  0.000  -0.000  -0.000   0.000   0.000   0.000   0.000   0.000   0.000  -0.000  -0.000   0.000   0.000   0.000   0.000   0.000
  0.000  -0.000   0.000   0.000   0.000   0.000   0.000   0.000  -0.000   0.000   0.000   0.000  -0.000   0.000  -0.000  -0.000
  0.000   0.000   0.000  -0.000   0.000   0.000  -0.000   0.000   0.000  -0.000  -0.000   0.000   0.000   0.000   0.000   0.000
  0.000   0.000   0.000   0.000   0.000   0.000   0.000   0.000   0.000   0.000  -0.000   0.000   0.000   0.000   0.000   0.000
  0.000   0.000   0.000   0.000   0.000   0.000  -0.000   0.000  -0.000   0.000  -0.000   0.000   0.000   0.000  -0.000   0.000
  0.000   0.000   0.000  -0.000   0.000  -0.000  -0.000   0.000   0.000  -0.000  -0.000   0.000   0.000   0.000  -0.000   0.000
  0.000   0.000   0.000   0.000   0.000   0.000   0.000   0.000   0.000   0.000   0.000   0.000   0.000  -0.000   0.000   0.000
  0.000   0.000  -0.000   0.000   0.000  -0.000   0.000   0.000  -0.010   0.000   0.000   0.000   0.000   0.001   0.000   0.000
  0.000  -0.000   0.000  -0.000   0.000   0.000  -0.000   0.000   0.000   0.001   0.000   0.000  -0.000   0.000  -0.000  -0.000
 -0.000  -0.000   0.000  -0.000  -0.000  -0.000  -0.000   0.000   0.000   0.000  -0.000   0.000  -0.000   0.000   0.000   0.000
 -0.000   0.000   0.000   0.000   0.000   0.000   0.000   0.000  -0.000   0.000   0.000   0.001  -0.000  -0.000   0.000   0.000
  0.000   0.000   0.000   0.000   0.000   0.000   0.000   0.000   0.000  -0.000  -0.000  -0.000   0.016   0.000   0.000   0.000
  0.000   0.000   0.000   0.000   0.000  -0.000   0.000   0.000   0.001  -0.000   0.000   0.000   0.000  -0.000  -0.000   0.000
 -0.000  -0.000  -0.000   0.000   0.000  -0.000  -0.000   0.000   0.000  -0.000   0.000   0.000   0.000   0.000   0.000  -0.000
  0.000   0.000  -0.000   0.000   0.000   0.000   0.000   0.000   0.000  -0.000   0.000   0.000   0.000   0.000  -0.000  -0.000
  0.000  -0.000   0.000   0.000  -0.000   0.000   0.000  -0.000   0.000   0.000   0.000  -0.000   0.000  -0.000   0.000   0.000
 -0.000   0.000   0.000  -0.000  -0.000   0.000  -0.000   0.000   0.000   0.000   0.000   0.000  -0.002   0.000   0.000  -0.000


------------------------ aborting loop because EDIFF is reached ----------------------------------------


    CHARGE:  cpu time    0.0576: real time    0.0584
    FORLOC:  cpu time    0.0008: real time    0.0008
    FORNL :  cpu time    0.0591: real time    0.0593
    STRESS:  cpu time    0.2326: real time    0.2332
    FORCOR:  cpu time    0.0545: real time    0.0546
    FORHAR:  cpu time    0.0052: real time    0.0052
    MIXING:  cpu time    0.0026: real time    0.0026
    OFIELD:  cpu time    0.0000: real time    0.0000

  FORCE on cell =-STRESS in cart. coord.  units (eV):
  Direction    XX          YY          ZZ          XY          YZ          ZX
  --------------------------------------------------------------------------------------
  Alpha Z     3.45035     3.45035     3.45035
  Ewald    -390.75126  -390.75126   699.62220     0.00000     0.00000     0.00000
  Hartree   590.70941   590.70941  1335.80089    -0.00000    -0.00000    -0.00000
  E(xc)    -117.10546  -117.10546  -115.39749    -0.00000    -0.00000    -0.00000
  Local    -593.25055  -593.25055 -2474.38966    -0.00000     0.00000     0.00000
  n-local   -21.02624   -21.02242   -44.48007     0.00037     0.00089    -0.00006
  augment    36.62139    36.62139    43.15006     0.00000     0.00000     0.00000
  Kinetic   490.93287   490.91836   540.06420     0.00161    -0.00100     0.00220
  Fock        0.00000     0.00000     0.00000     0.00000     0.00000     0.00000
  -------------------------------------------------------------------------------------
  Total      -0.42483    -0.42483   -12.17951     0.00000     0.00000    -0.00000
  in kB      -0.39390    -0.39390   -11.29267     0.00000     0.00000    -0.00000
  external pressure =       -4.03 kB  Pullay stress =        0.00 kB


 VOLUME and BASIS-vectors are now :
 -----------------------------------------------------------------------------
  energy-cutoff  :      293.24
  volume of cell :     1728.00
      direct lattice vectors                 reciprocal lattice vectors
    12.000000000  0.000000000  0.000000000     0.083333333  0.000000000  0.000000000
     0.000000000 12.000000000  0.000000000     0.000000000  0.083333333  0.000000000
     0.000000000  0.000000000 12.000000000     0.000000000  0.000000000  0.083333333

  length of vectors
    12.000000000 12.000000000 12.000000000     0.083333333  0.083333333  0.083333333


 FORCES acting on ions
    electron-ion (+dipol)            ewald-force                    non-local-force                 convergence-correction
 -----------------------------------------------------------------------------------------------
   0.532E-14 0.380E-12 0.449E+03   -.281E-15 -.483E-16 -.440E+03   0.847E-21 -.847E-21 -.419E+01   0.436E-13 0.601E-13 -.879E-02
   0.211E-13 0.760E-13 -.449E+03   0.812E-16 0.147E-15 0.440E+03   0.000E+00 0.847E-21 0.419E+01   0.526E-13 0.647E-13 0.879E-02
 -----------------------------------------------------------------------------------------------
   0.264E-13 0.456E-12 -.383E-03   -.200E-15 0.988E-16 0.000E+00   0.847E-21 0.000E+00 0.355E-14   0.963E-13 0.125E-12 0.362E-06
 
 
 POSITION                                       TOTAL-FORCE (eV/Angst)
 -----------------------------------------------------------------------------------
     -0.00000     -0.00000      0.17685         0.000000     -0.000000      4.995203
      0.00000      0.00000      2.48956        -0.000000      0.000000     -4.995203
 -----------------------------------------------------------------------------------
    total drift:                                0.000000      0.000000     -0.000383


--------------------------------------------------------------------------------------------------------



  FREE ENERGIE OF THE ION-ELECTRON SYSTEM (eV)
  ---------------------------------------------------
  free  energy   TOTEN  =       -10.33281128 eV

  energy  without entropy=      -10.10712461  energy(sigma->0) =      -10.21996795
 
 d Force = 0.7956532E+02[-0.473E+01, 0.164E+03]  d Energy = 0.2824321E+02 0.513E+02
 d Force = 0.8208100E+03[ 0.416E+03, 0.123E+04]  d Ewald  = 0.7176672E+03 0.103E+03


--------------------------------------------------------------------------------------------------------


    POTLOK:  cpu time    0.0612: real time    0.0614


--------------------------------------------------------------------------------------------------------




--------------------------------------------------------------------------------------------------------


  
 reached required accuracy - stopping structural energy minimisation
 writing wavefunctions
     LOOP+:  cpu time   13.1165: real time   13.4734
    4ORBIT:  cpu time    0.0000: real time    0.0000

 total amount of memory used by VASP MPI-rank0    73414. kBytes
=======================================================================

   base      :      30000. kBytes
   nonl-proj :      17690. kBytes
   fftplans  :       2864. kBytes
   grid      :      15198. kBytes
   one-center:         62. kBytes
   wavefun   :       7600. kBytes
 
  
  
 General timing and accounting informations for this job:
 ========================================================
  
                  Total CPU time used (sec):       73.845
                            User time (sec):       70.174
                          System time (sec):        3.671
                         Elapsed time (sec):       75.397
  
                   Maximum memory used (kb):      234228.
                   Average memory used (kb):           0.
  
                          Minor page faults:       120083
                          Major page faults:           36
                 Voluntary context switches:        14236
