 vasp.5.4.1 05Feb16 (build Mar 19 2020 08:54:17) complex                        
  
 executed on           IFC91_ompi date 2022.01.25  11:17:35
 running on   96 total cores
 distrk:  each k-point on   96 cores,    1 groups
 distr:  one band on NCORES_PER_BAND=  24 cores,    4 groups


--------------------------------------------------------------------------------------------------------


 INCAR:
 POTCAR:    PAW_PBE Nb_sv 25May2007               

 ----------------------------------------------------------------------------- 
|                                                                             |
|           W    W    AA    RRRRR   N    N  II  N    N   GGGG   !!!           |
|           W    W   A  A   R    R  NN   N  II  NN   N  G    G  !!!           |
|           W    W  A    A  R    R  N N  N  II  N N  N  G       !!!           |
|           W WW W  AAAAAA  RRRRR   N  N N  II  N  N N  G  GGG   !            |
|           WW  WW  A    A  R   R   N   NN  II  N   NN  G    G                |
|           W    W  A    A  R    R  N    N  II  N    N   GGGG   !!!           |
|                                                                             |
|      For optimal performance we recommend to set                            |
|        NCORE= 4 - approx SQRT( number of cores)                             |
|      NCORE specifies how many cores store one orbital (NPAR=cpu/NCORE).     |
|      This setting can  greatly improve the performance of VASP for DFT.     |
|      The default, NPAR=number of cores might be grossly inefficient         |
|      on modern multi-core architectures or massively parallel machines.     |
|      Do your own testing !!!!                                               |
|      Unfortunately you need to use the default for GW and RPA calculations. |
|      (for HF NCORE is supported but not extensively tested yet)             |
|                                                                             |
 ----------------------------------------------------------------------------- 

 POTCAR:    PAW_PBE Nb_sv 25May2007               
   VRHFIN =Nb: 4p5s4d                                                           
   LEXCH  = PE                                                                  
   EATOM  =  1555.1913 eV,  114.3033 Ry                                         
                                                                                
   TITEL  = PAW_PBE Nb_sv 25May2007                                             
   LULTRA =        F    use ultrasoft PP ?                                      
   IUNSCR =        1    unscreen: 0-lin 1-nonlin 2-no                           
   RPACOR =    1.800    partial core radius                                     
   POMASS =   92.910; ZVAL   =   13.000    mass and valenz                      
   RCORE  =    2.400    outmost cutoff radius                                   
   RWIGS  =    2.400; RWIGS  =    1.270    wigner-seitz radius (au A)           
   ENMAX  =  293.235; ENMIN  =  219.927 eV                                      
   ICORE  =        3    local potential                                         
   LCOR   =        T    correct aug charges                                     
   LPAW   =        T    paw PP                                                  
   EAUG   =  455.659                                                            
   DEXC   =    0.000                                                            
   RMAX   =    2.456    core radius for proj-oper                               
   RAUG   =    1.300    factor for augmentation sphere                          
   RDEP   =    2.451    radius for radial grids                                 
   RDEPT  =    1.956    core radius for aug-charge                              
                                                                                
   Atomic configuration                                                         
   11 entries                                                                   
     n  l   j            E        occ.                                          
     1  0  0.50    -18805.2457   2.0000                                         
     2  0  0.50     -2630.2869   2.0000                                         
     2  1  1.50     -2348.4046   6.0000                                         
     3  0  0.50      -438.8757   2.0000                                         
     3  1  1.50      -346.7588   6.0000                                         
     3  2  2.50      -196.2560  10.0000                                         
     4  0  0.50       -58.3859   2.0000                                         
     5  0  0.50        -3.9816   1.0000                                         
     4  1  1.50       -34.5141   6.0000                                         
     4  2  2.50        -3.0408   4.0000                                         
     4  3  2.50        -1.3606   0.0000                                         
   Description                                                                  
     l       E           TYP  RCUT    TYP  RCUT                                 
     0    -58.3859094     23  2.200                                             
     0     -3.9816262     23  2.200                                             
     1    -34.5140738     23  2.200                                             
     1     13.6058260     23  2.200                                             
     2     -3.0408010     23  2.200                                             
     2     -0.1283038     23  2.200                                             
     3     -1.3605826     23  2.400                                             
  local pseudopotential read in
  partial core-charges read in
  partial kinetic energy density read in
  atomic valenz-charges read in
  non local Contribution for L=           0  read in
    real space projection operators read in
  non local Contribution for L=           0  read in
    real space projection operators read in
  non local Contribution for L=           1  read in
    real space projection operators read in
  non local Contribution for L=           1  read in
    real space projection operators read in
  non local Contribution for L=           2  read in
    real space projection operators read in
  non local Contribution for L=           2  read in
    real space projection operators read in
    PAW grid and wavefunctions read in
 
   number of l-projection  operators is LMAX  =           6
   number of lm-projection operators is LMMAX =          18
 

 ----------------------------------------------------------------------------- 
|                                                                             |
|  ADVICE TO THIS USER RUNNING 'VASP/VAMP'   (HEAR YOUR MASTER'S VOICE ...):  |
|                                                                             |
|      You have a (more or less) 'small supercell' and for smaller cells      |
|      it is recommended  to use the reciprocal-space projection scheme!      |
|      The real space optimization is not  efficient for small cells and it   |
|      is also less accurate ...                                              |
|      Therefore set LREAL=.FALSE. in the  INCAR file                         |
|                                                                             |
 ----------------------------------------------------------------------------- 

 Optimization of the real space projectors (new method)

 maximal supplied QI-value         = 15.68
 optimisation between [QCUT,QGAM] = [ 10.82, 21.64] = [ 32.80,131.19] Ry 
 Optimized for a Real-space Cutoff    1.65 Angstroem

   l    n(q)    QCUT    max X(q) W(low)/X(q) W(high)/X(q)  e(spline) 
   0     11    10.822    10.201    0.23E-04    0.55E-05    0.31E-07
   0     11    10.822     8.174    0.35E-04    0.99E-05    0.65E-07
   1     10    10.822     3.488    0.18E-04    0.21E-04    0.55E-07
   1     10    10.822     4.917    0.15E-03    0.13E-03    0.29E-06
   2     10    10.822   153.744    0.28E-03    0.15E-03    0.13E-05
   2     10    10.822   126.342    0.28E-03    0.15E-03    0.13E-05
  PAW_PBE Nb_sv 25May2007               :
 energy of atom  1       EATOM=-1555.1913
 kinetic energy error for atom=    0.0113 (will be added to EATOM!!)
 
 
 POSCAR: Nb Cell                                 
  positions in direct lattice
  No initial velocities read in
 exchange correlation table for  LEXCH =        8
   RHO(1)=    0.500       N(1)  =     2000
   RHO(2)=  100.500       N(2)  =     4000
 


--------------------------------------------------------------------------------------------------------


 ion  position               nearest neighbor table
   1  0.000  0.000  0.000-   2 2.86   2 2.86   2 2.86   2 2.86   2 2.86   2 2.86   2 2.86   2 2.86

   2  0.500  0.500  0.500-   1 2.86   1 2.86   1 2.86   1 2.86   1 2.86   1 2.86   1 2.86   1 2.86

 
  LATTYP: Found a simple cubic cell.
 ALAT       =     3.3000000000
  
  Lattice vectors:
  
 A1 = (   3.3000000000,   0.0000000000,   0.0000000000)
 A2 = (   0.0000000000,   3.3000000000,   0.0000000000)
 A3 = (   0.0000000000,   0.0000000000,   3.3000000000)


Analysis of symmetry for initial positions (statically):
=====================================================================
 Subroutine PRICEL returns following result:
 
  LATTYP: Found a body centered cubic cell.
 ALAT       =     3.3000000000
  
  Lattice vectors:
  
 A1 = (   1.6500000000,   1.6500000000,   1.6500000000)
 A2 = (   1.6500000000,  -1.6500000000,  -1.6500000000)
 A3 = (  -1.6500000000,   1.6500000000,  -1.6500000000)
 
   2 primitive cells build up your supercell.
 

 Routine SETGRP: Setting up the symmetry group for a 
 simple cubic supercell.


 Subroutine GETGRP returns: Found 48 space group operations
 (whereof 48 operations were pure point group operations)
 out of a pool of 48 trial point group operations.


The static configuration has the point symmetry O_h .


Analysis of symmetry for dynamics (positions and initial velocities):
=====================================================================
 Subroutine PRICEL returns following result:
 
  LATTYP: Found a body centered cubic cell.
 ALAT       =     3.3000000000
  
  Lattice vectors:
  
 A1 = (   1.6500000000,   1.6500000000,   1.6500000000)
 A2 = (   1.6500000000,  -1.6500000000,  -1.6500000000)
 A3 = (  -1.6500000000,   1.6500000000,  -1.6500000000)
 
   2 primitive cells build up your supercell.
 

 Routine SETGRP: Setting up the symmetry group for a 
 simple cubic supercell.


 Subroutine GETGRP returns: Found 48 space group operations
 (whereof 48 operations were pure point group operations)
 out of a pool of 48 trial point group operations.


The dynamic configuration has the point symmetry O_h .


Analysis of structural, dynamic, and magnetic symmetry:
=====================================================================
 Subroutine PRICEL returns following result:
 
  LATTYP: Found a body centered cubic cell.
 ALAT       =     3.3000000000
  
  Lattice vectors:
  
 A1 = (   1.6500000000,   1.6500000000,   1.6500000000)
 A2 = (   1.6500000000,  -1.6500000000,  -1.6500000000)
 A3 = (  -1.6500000000,   1.6500000000,  -1.6500000000)
 
   2 primitive cells build up your supercell.
 

 Routine SETGRP: Setting up the symmetry group for a 
 simple cubic supercell.


 Subroutine GETGRP returns: Found 48 space group operations
 (whereof 48 operations were pure point group operations)
 out of a pool of 48 trial point group operations.


The magnetic configuration has the point symmetry O_h .


 Subroutine INISYM returns: Found 48 space group operations
 (whereof 48 operations are pure point group operations),
 and found     2 'primitive' translations

 
 
 KPOINTS: k-points                                

Automatic generation of k-mesh.
Space group operators:
 irot       det(A)        alpha          n_x          n_y          n_z        tau_x        tau_y        tau_z
    1     1.000000     0.000000     1.000000     0.000000     0.000000     0.000000     0.000000     0.000000
    2    -1.000000     0.000000     1.000000     0.000000     0.000000     0.000000     0.000000     0.000000
    3     1.000000   120.000000    -0.577350    -0.577350    -0.577350     0.000000     0.000000     0.000000
    4    -1.000000   120.000000    -0.577350    -0.577350    -0.577350     0.000000     0.000000     0.000000
    5     1.000000   120.000000     0.577350     0.577350     0.577350     0.000000     0.000000     0.000000
    6    -1.000000   120.000000     0.577350     0.577350     0.577350     0.000000     0.000000     0.000000
    7     1.000000    90.000000     0.000000     0.000000    -1.000000     0.000000     0.000000     0.000000
    8    -1.000000    90.000000     0.000000     0.000000    -1.000000     0.000000     0.000000     0.000000
    9     1.000000   180.000000     0.000000     0.707107     0.707107     0.000000     0.000000     0.000000
   10    -1.000000   180.000000     0.000000     0.707107     0.707107     0.000000     0.000000     0.000000
   11     1.000000    90.000000     0.000000     1.000000     0.000000     0.000000     0.000000     0.000000
   12    -1.000000    90.000000     0.000000     1.000000     0.000000     0.000000     0.000000     0.000000
   13     1.000000   180.000000     0.000000     0.000000     1.000000     0.000000     0.000000     0.000000
   14    -1.000000   180.000000     0.000000     0.000000     1.000000     0.000000     0.000000     0.000000
   15     1.000000   120.000000    -0.577350     0.577350     0.577350     0.000000     0.000000     0.000000
   16    -1.000000   120.000000    -0.577350     0.577350     0.577350     0.000000     0.000000     0.000000
   17     1.000000   120.000000    -0.577350     0.577350    -0.577350     0.000000     0.000000     0.000000
   18    -1.000000   120.000000    -0.577350     0.577350    -0.577350     0.000000     0.000000     0.000000
   19     1.000000    90.000000     0.000000     0.000000     1.000000     0.000000     0.000000     0.000000
   20    -1.000000    90.000000     0.000000     0.000000     1.000000     0.000000     0.000000     0.000000
   21     1.000000    90.000000    -1.000000     0.000000     0.000000     0.000000     0.000000     0.000000
   22    -1.000000    90.000000    -1.000000     0.000000     0.000000     0.000000     0.000000     0.000000
   23     1.000000   180.000000     0.707107     0.000000     0.707107     0.000000     0.000000     0.000000
   24    -1.000000   180.000000     0.707107     0.000000     0.707107     0.000000     0.000000     0.000000
   25     1.000000   120.000000     0.577350    -0.577350     0.577350     0.000000     0.000000     0.000000
   26    -1.000000   120.000000     0.577350    -0.577350     0.577350     0.000000     0.000000     0.000000
   27     1.000000   120.000000    -0.577350    -0.577350     0.577350     0.000000     0.000000     0.000000
   28    -1.000000   120.000000    -0.577350    -0.577350     0.577350     0.000000     0.000000     0.000000
   29     1.000000   180.000000     1.000000     0.000000     0.000000     0.000000     0.000000     0.000000
   30    -1.000000   180.000000     1.000000     0.000000     0.000000     0.000000     0.000000     0.000000
   31     1.000000    90.000000     0.000000    -1.000000     0.000000     0.000000     0.000000     0.000000
   32    -1.000000    90.000000     0.000000    -1.000000     0.000000     0.000000     0.000000     0.000000
   33     1.000000   180.000000     0.707107     0.707107     0.000000     0.000000     0.000000     0.000000
   34    -1.000000   180.000000     0.707107     0.707107     0.000000     0.000000     0.000000     0.000000
   35     1.000000    90.000000     1.000000     0.000000     0.000000     0.000000     0.000000     0.000000
   36    -1.000000    90.000000     1.000000     0.000000     0.000000     0.000000     0.000000     0.000000
   37     1.000000   120.000000     0.577350    -0.577350    -0.577350     0.000000     0.000000     0.000000
   38    -1.000000   120.000000     0.577350    -0.577350    -0.577350     0.000000     0.000000     0.000000
   39     1.000000   180.000000     0.000000     1.000000     0.000000     0.000000     0.000000     0.000000
   40    -1.000000   180.000000     0.000000     1.000000     0.000000     0.000000     0.000000     0.000000
   41     1.000000   120.000000     0.577350     0.577350    -0.577350     0.000000     0.000000     0.000000
   42    -1.000000   120.000000     0.577350     0.577350    -0.577350     0.000000     0.000000     0.000000
   43     1.000000   180.000000     0.000000    -0.707107     0.707107     0.000000     0.000000     0.000000
   44    -1.000000   180.000000     0.000000    -0.707107     0.707107     0.000000     0.000000     0.000000
   45     1.000000   180.000000     0.707107    -0.707107     0.000000     0.000000     0.000000     0.000000
   46    -1.000000   180.000000     0.707107    -0.707107     0.000000     0.000000     0.000000     0.000000
   47     1.000000   180.000000     0.707107     0.000000    -0.707107     0.000000     0.000000     0.000000
   48    -1.000000   180.000000     0.707107     0.000000    -0.707107     0.000000     0.000000     0.000000
 
 Subroutine IBZKPT returns following result:
 ===========================================
 
 Found     35 irreducible k-points:
 
 Following reciprocal coordinates:
            Coordinates               Weight
  0.050000  0.050000  0.050000      8.000000
  0.150000  0.050000  0.050000     24.000000
  0.250000  0.050000  0.050000     24.000000
  0.350000  0.050000  0.050000     24.000000
  0.450000  0.050000  0.050000     24.000000
  0.150000  0.150000  0.050000     24.000000
  0.250000  0.150000  0.050000     48.000000
  0.350000  0.150000  0.050000     48.000000
  0.450000  0.150000  0.050000     48.000000
  0.250000  0.250000  0.050000     24.000000
  0.350000  0.250000  0.050000     48.000000
  0.450000  0.250000  0.050000     48.000000
  0.350000  0.350000  0.050000     24.000000
  0.450000  0.350000  0.050000     48.000000
  0.450000  0.450000  0.050000     24.000000
  0.150000  0.150000  0.150000      8.000000
  0.250000  0.150000  0.150000     24.000000
  0.350000  0.150000  0.150000     24.000000
  0.450000  0.150000  0.150000     24.000000
  0.250000  0.250000  0.150000     24.000000
  0.350000  0.250000  0.150000     48.000000
  0.450000  0.250000  0.150000     48.000000
  0.350000  0.350000  0.150000     24.000000
  0.450000  0.350000  0.150000     48.000000
  0.450000  0.450000  0.150000     24.000000
  0.250000  0.250000  0.250000      8.000000
  0.350000  0.250000  0.250000     24.000000
  0.450000  0.250000  0.250000     24.000000
  0.350000  0.350000  0.250000     24.000000
  0.450000  0.350000  0.250000     48.000000
  0.450000  0.450000  0.250000     24.000000
  0.350000  0.350000  0.350000      8.000000
  0.450000  0.350000  0.350000     24.000000
  0.450000  0.450000  0.350000     24.000000
  0.450000  0.450000  0.450000      8.000000
 
 Following cartesian coordinates:
            Coordinates               Weight
  0.015152  0.015152  0.015152      8.000000
  0.045455  0.015152  0.015152     24.000000
  0.075758  0.015152  0.015152     24.000000
  0.106061  0.015152  0.015152     24.000000
  0.136364  0.015152  0.015152     24.000000
  0.045455  0.045455  0.015152     24.000000
  0.075758  0.045455  0.015152     48.000000
  0.106061  0.045455  0.015152     48.000000
  0.136364  0.045455  0.015152     48.000000
  0.075758  0.075758  0.015152     24.000000
  0.106061  0.075758  0.015152     48.000000
  0.136364  0.075758  0.015152     48.000000
  0.106061  0.106061  0.015152     24.000000
  0.136364  0.106061  0.015152     48.000000
  0.136364  0.136364  0.015152     24.000000
  0.045455  0.045455  0.045455      8.000000
  0.075758  0.045455  0.045455     24.000000
  0.106061  0.045455  0.045455     24.000000
  0.136364  0.045455  0.045455     24.000000
  0.075758  0.075758  0.045455     24.000000
  0.106061  0.075758  0.045455     48.000000
  0.136364  0.075758  0.045455     48.000000
  0.106061  0.106061  0.045455     24.000000
  0.136364  0.106061  0.045455     48.000000
  0.136364  0.136364  0.045455     24.000000
  0.075758  0.075758  0.075758      8.000000
  0.106061  0.075758  0.075758     24.000000
  0.136364  0.075758  0.075758     24.000000
  0.106061  0.106061  0.075758     24.000000
  0.136364  0.106061  0.075758     48.000000
  0.136364  0.136364  0.075758     24.000000
  0.106061  0.106061  0.106061      8.000000
  0.136364  0.106061  0.106061     24.000000
  0.136364  0.136364  0.106061     24.000000
  0.136364  0.136364  0.136364      8.000000
 


--------------------------------------------------------------------------------------------------------




 Dimension of arrays:
   k-points           NKPTS =     35   k-points in BZ     NKDIM =     35   number of bands    NBANDS=     20
   number of dos      NEDOS =    301   number of ions     NIONS =      2
   non local maximal  LDIM  =      6   non local SUM 2l+1 LMDIM =     18
   total plane-waves  NPLWV =   5832
   max r-space proj   IRMAX =   3096   max aug-charges    IRDMAX=   7071
   dimension x,y,z NGX =    18 NGY =   18 NGZ =   18
   dimension x,y,z NGXF=    36 NGYF=   36 NGZF=   36
   support grid    NGXF=    36 NGYF=   36 NGZF=   36
   ions per type =               2
 NGX,Y,Z   is equivalent  to a cutoff of   9.07,  9.07,  9.07 a.u.
 NGXF,Y,Z  is equivalent  to a cutoff of  18.14, 18.14, 18.14 a.u.


 I would recommend the setting:
   dimension x,y,z NGX =    17 NGY =   17 NGZ =   17
 SYSTEM =  clean (100) surface                     
 POSCAR =  Nb Cell                                 

 Startparameter for this run:
   NWRITE =      2    write-flag & timer
   PREC   = normal    normal or accurate (medium, high low for compatibility)
   ISTART =      0    job   : 0-new  1-cont  2-samecut
   ICHARG =      2    charge: 1-file 2-atom 10-const
   ISPIN  =      2    spin polarized calculation?
   LNONCOLLINEAR =      F non collinear calculations
   LSORBIT =      F    spin-orbit coupling
   INIWAV =      1    electr: 0-lowe 1-rand  2-diag
   LASPH  =      F    aspherical Exc in radial PAW
   METAGGA=      F    non-selfconsistent MetaGGA calc.

 Electronic Relaxation 1
   ENCUT  =  450.0 eV  33.07 Ry    5.75 a.u.   5.71  5.71  5.71*2*pi/ulx,y,z
   ENINI  =  450.0     initial cutoff
   ENAUG  =  455.7 eV  augmentation charge cutoff
   NELM   =     60;   NELMIN=  2; NELMDL= -5     # of ELM steps 
   EDIFF  = 0.1E-05   stopping-criterion for ELM
   LREAL  =      T    real-space projection
   NLSPLINE    = F    spline interpolate recip. space projectors
   LCOMPAT=      F    compatible to vasp.4.4
   GGA_COMPAT  = T    GGA compatible to vasp.4.4-vasp.4.6
   LMAXPAW     = -100 max onsite density
   LMAXMIX     =    2 max onsite mixed and CHGCAR
   VOSKOWN=      0    Vosko Wilk Nusair interpolation
   ROPT   =   -0.00050
 Ionic relaxation
   EDIFFG = -.1E-01   stopping-criterion for IOM
   NSW    =    250    number of steps for IOM
   NBLOCK =      1;   KBLOCK =    250    inner block; outer block 
   IBRION =      2    ionic relax: 0-MD 1-quasi-New 2-CG
   NFREE  =      1    steps in history (QN), initial steepest desc. (CG)
   ISIF   =      2    stress and relaxation
   IWAVPR =     11    prediction:  0-non 1-charg 2-wave 3-comb
   ISYM   =      2    0-nonsym 1-usesym 2-fastsym
   LCORR  =      T    Harris-Foulkes like correction to forces

   POTIM  = 0.1000    time-step for ionic-motion
   TEIN   =    0.0    initial temperature
   TEBEG  =    0.0;   TEEND  =   0.0 temperature during run
   SMASS  =  -3.00    Nose mass-parameter (am)
   estimated Nose-frequenzy (Omega)   =  0.10E-29 period in steps =****** mass=  -0.249E-27a.u.
   SCALEE = 1.0000    scale energy and forces
   NPACO  =    256;   APACO  = 16.0  distance and # of slots for P.C.
   PSTRESS=    0.0 pullay stress

  Mass of Ions in am
   POMASS =  92.91
  Ionic Valenz
   ZVAL   =  13.00
  Atomic Wigner-Seitz radii
   RWIGS  =  -1.00
  virtual crystal weights 
   VCA    =   1.00
   NELECT =      26.0000    total number of electrons
   NUPDOWN=      -1.0000    fix difference up-down

 DOS related values:
   EMIN   =  10.00;   EMAX   =-10.00  energy-range for DOS
   EFERMI =   0.00
   ISMEAR =     2;   SIGMA  =   0.20  broadening in eV -4-tet -1-fermi 0-gaus

 Electronic relaxation 2 (details)
   IALGO  =     68    algorithm
   LDIAG  =      T    sub-space diagonalisation (order eigenvalues)
   LSUBROT=      F    optimize rotation matrix (better conditioning)
   TURBO    =      0    0=normal 1=particle mesh
   IRESTART =      0    0=no restart 2=restart with 2 vectors
   NREBOOT  =      0    no. of reboots
   NMIN     =      0    reboot dimension
   EREF     =   0.00    reference energy to select bands
   IMIX   =      4    mixing-type and parameters
     AMIX     =   0.40;   BMIX     =  1.00
     AMIX_MAG =   1.60;   BMIX_MAG =  1.00
     AMIN     =   0.10
     WC   =   100.;   INIMIX=   1;  MIXPRE=   1;  MAXMIX= -45

 Intra band minimization:
   WEIMIN = 0.0010     energy-eigenvalue tresh-hold
   EBREAK =  0.12E-07  absolut break condition
   DEPER  =   0.30     relativ break condition  

   TIME   =   0.40     timestep for ELM

  volume/ion in A,a.u.               =      17.97       121.26
  Fermi-wavevector in a.u.,A,eV,Ry     =   1.469666  2.777266 29.387474  2.159918
  Thomas-Fermi vector in A             =   2.585016
 
 Write flags
   LWAVE  =      F    write WAVECAR
   LCHARG =      F    write CHGCAR
   LVTOT  =      F    write LOCPOT, total local potential
   LVHAR  =      F    write LOCPOT, Hartree potential only
   LELF   =      F    write electronic localiz. function (ELF)
   LORBIT =      0    0 simple, 1 ext, 2 COOP (PROOUT)


 Dipole corrections
   LMONO  =      F    monopole corrections only (constant potential shift)
   LDIPOL =      F    correct potential (dipole corrections)
   IDIPOL =      0    1-x, 2-y, 3-z, 4-all directions 
   EPSILON=  1.0000000 bulk dielectric constant

 Exchange correlation treatment:
   GGA     =    --    GGA type
   LEXCH   =     8    internal setting for exchange type
   VOSKOWN=      0    Vosko Wilk Nusair interpolation
   LHFCALC =     F    Hartree Fock is set to
   LHFONE  =     F    Hartree Fock one center treatment
   AEXX    =    0.0000 exact exchange contribution

 Linear response parameters
   LEPSILON=     F    determine dielectric tensor
   LRPA    =     F    only Hartree local field effects (RPA)
   LNABLA  =     F    use nabla operator in PAW spheres
   LVEL    =     F    velocity operator in full k-point grid
   LINTERFAST=   F  fast interpolation
   KINTER  =     0    interpolate to denser k-point grid
   CSHIFT  =0.1000    complex shift for real part using Kramers Kronig
   OMEGAMAX=  -1.0    maximum frequency
   DEG_THRESHOLD= 0.2000000E-02 threshold for treating states as degnerate
   RTIME   =    0.100 relaxation time in fs

 Orbital magnetization related:
   ORBITALMAG=     F  switch on orbital magnetization
   LCHIMAG   =     F  perturbation theory with respect to B field
   DQ        =  0.001000  dq finite difference perturbation B field



--------------------------------------------------------------------------------------------------------


 conjugate gradient relaxation of ions
 charge density and potential will be updated during run
 spin polarized calculation
 RMM-DIIS sequential band-by-band and
  variant of blocked Davidson during initial phase
 perform sub-space diagonalisation
    before iterative eigenvector-optimisation
 modified Broyden-mixing scheme, WC =      100.0
 initial mixing is a Kerker type mixing with AMIX =  0.4000 and BMIX =      1.0000
 Hartree-type preconditioning will be used
 using additional bands            7
 real space projection scheme for non local part
 use partial core corrections
 calculate Harris-corrections to forces 
   (improved forces if not selfconsistent)
 use gradient corrections 
 use of overlap-Matrix (Vanderbilt PP)
 Methfessel and Paxton  Order N= 2 SIGMA  =   0.20


--------------------------------------------------------------------------------------------------------


  energy-cutoff  :      450.00
  volume of cell :       35.94
      direct lattice vectors                 reciprocal lattice vectors
     3.300000000  0.000000000  0.000000000     0.303030303  0.000000000  0.000000000
     0.000000000  3.300000000  0.000000000     0.000000000  0.303030303  0.000000000
     0.000000000  0.000000000  3.300000000     0.000000000  0.000000000  0.303030303

  length of vectors
     3.300000000  3.300000000  3.300000000     0.303030303  0.303030303  0.303030303


 
 k-points in units of 2pi/SCALE and weight: k-points                                
   0.01515152  0.01515152  0.01515152       0.008
   0.04545455  0.01515152  0.01515152       0.024
   0.07575758  0.01515152  0.01515152       0.024
   0.10606061  0.01515152  0.01515152       0.024
   0.13636364  0.01515152  0.01515152       0.024
   0.04545455  0.04545455  0.01515152       0.024
   0.07575758  0.04545455  0.01515152       0.048
   0.10606061  0.04545455  0.01515152       0.048
   0.13636364  0.04545455  0.01515152       0.048
   0.07575758  0.07575758  0.01515152       0.024
   0.10606061  0.07575758  0.01515152       0.048
   0.13636364  0.07575758  0.01515152       0.048
   0.10606061  0.10606061  0.01515152       0.024
   0.13636364  0.10606061  0.01515152       0.048
   0.13636364  0.13636364  0.01515152       0.024
   0.04545455  0.04545455  0.04545455       0.008
   0.07575758  0.04545455  0.04545455       0.024
   0.10606061  0.04545455  0.04545455       0.024
   0.13636364  0.04545455  0.04545455       0.024
   0.07575758  0.07575758  0.04545455       0.024
   0.10606061  0.07575758  0.04545455       0.048
   0.13636364  0.07575758  0.04545455       0.048
   0.10606061  0.10606061  0.04545455       0.024
   0.13636364  0.10606061  0.04545455       0.048
   0.13636364  0.13636364  0.04545455       0.024
   0.07575758  0.07575758  0.07575758       0.008
   0.10606061  0.07575758  0.07575758       0.024
   0.13636364  0.07575758  0.07575758       0.024
   0.10606061  0.10606061  0.07575758       0.024
   0.13636364  0.10606061  0.07575758       0.048
   0.13636364  0.13636364  0.07575758       0.024
   0.10606061  0.10606061  0.10606061       0.008
   0.13636364  0.10606061  0.10606061       0.024
   0.13636364  0.13636364  0.10606061       0.024
   0.13636364  0.13636364  0.13636364       0.008
 
 k-points in reciprocal lattice and weights: k-points                                
   0.05000000  0.05000000  0.05000000       0.008
   0.15000000  0.05000000  0.05000000       0.024
   0.25000000  0.05000000  0.05000000       0.024
   0.35000000  0.05000000  0.05000000       0.024
   0.45000000  0.05000000  0.05000000       0.024
   0.15000000  0.15000000  0.05000000       0.024
   0.25000000  0.15000000  0.05000000       0.048
   0.35000000  0.15000000  0.05000000       0.048
   0.45000000  0.15000000  0.05000000       0.048
   0.25000000  0.25000000  0.05000000       0.024
   0.35000000  0.25000000  0.05000000       0.048
   0.45000000  0.25000000  0.05000000       0.048
   0.35000000  0.35000000  0.05000000       0.024
   0.45000000  0.35000000  0.05000000       0.048
   0.45000000  0.45000000  0.05000000       0.024
   0.15000000  0.15000000  0.15000000       0.008
   0.25000000  0.15000000  0.15000000       0.024
   0.35000000  0.15000000  0.15000000       0.024
   0.45000000  0.15000000  0.15000000       0.024
   0.25000000  0.25000000  0.15000000       0.024
   0.35000000  0.25000000  0.15000000       0.048
   0.45000000  0.25000000  0.15000000       0.048
   0.35000000  0.35000000  0.15000000       0.024
   0.45000000  0.35000000  0.15000000       0.048
   0.45000000  0.45000000  0.15000000       0.024
   0.25000000  0.25000000  0.25000000       0.008
   0.35000000  0.25000000  0.25000000       0.024
   0.45000000  0.25000000  0.25000000       0.024
   0.35000000  0.35000000  0.25000000       0.024
   0.45000000  0.35000000  0.25000000       0.048
   0.45000000  0.45000000  0.25000000       0.024
   0.35000000  0.35000000  0.35000000       0.008
   0.45000000  0.35000000  0.35000000       0.024
   0.45000000  0.45000000  0.35000000       0.024
   0.45000000  0.45000000  0.45000000       0.008
 
 position of ions in fractional coordinates (direct lattice) 
   0.00000000  0.00000000  0.00000000
   0.50000000  0.50000000  0.50000000
 
 position of ions in cartesian coordinates  (Angst):
   0.00000000  0.00000000  0.00000000
   1.65000000  1.65000000  1.65000000
 


--------------------------------------------------------------------------------------------------------


 k-point  1 :   0.0500 0.0500 0.0500  plane waves:     763
 k-point  2 :   0.1500 0.0500 0.0500  plane waves:     769
 k-point  3 :   0.2500 0.0500 0.0500  plane waves:     780
 k-point  4 :   0.3500 0.0500 0.0500  plane waves:     788
 k-point  5 :   0.4500 0.0500 0.0500  plane waves:     790
 k-point  6 :   0.1500 0.1500 0.0500  plane waves:     779
 k-point  7 :   0.2500 0.1500 0.0500  plane waves:     779
 k-point  8 :   0.3500 0.1500 0.0500  plane waves:     780
 k-point  9 :   0.4500 0.1500 0.0500  plane waves:     784
 k-point 10 :   0.2500 0.2500 0.0500  plane waves:     778
 k-point 11 :   0.3500 0.2500 0.0500  plane waves:     777
 k-point 12 :   0.4500 0.2500 0.0500  plane waves:     787
 k-point 13 :   0.3500 0.3500 0.0500  plane waves:     776
 k-point 14 :   0.4500 0.3500 0.0500  plane waves:     782
 k-point 15 :   0.4500 0.4500 0.0500  plane waves:     777
 k-point 16 :   0.1500 0.1500 0.1500  plane waves:     778
 k-point 17 :   0.2500 0.1500 0.1500  plane waves:     781
 k-point 18 :   0.3500 0.1500 0.1500  plane waves:     779
 k-point 19 :   0.4500 0.1500 0.1500  plane waves:     787
 k-point 20 :   0.2500 0.2500 0.1500  plane waves:     774
 k-point 21 :   0.3500 0.2500 0.1500  plane waves:     774
 k-point 22 :   0.4500 0.2500 0.1500  plane waves:     777
 k-point 23 :   0.3500 0.3500 0.1500  plane waves:     782
 k-point 24 :   0.4500 0.3500 0.1500  plane waves:     782
 k-point 25 :   0.4500 0.4500 0.1500  plane waves:     777
 k-point 26 :   0.2500 0.2500 0.2500  plane waves:     769
 k-point 27 :   0.3500 0.2500 0.2500  plane waves:     777
 k-point 28 :   0.4500 0.2500 0.2500  plane waves:     778
 k-point 29 :   0.3500 0.3500 0.2500  plane waves:     778
 k-point 30 :   0.4500 0.3500 0.2500  plane waves:     776
 k-point 31 :   0.4500 0.4500 0.2500  plane waves:     775
 k-point 32 :   0.3500 0.3500 0.3500  plane waves:     774
 k-point 33 :   0.4500 0.3500 0.3500  plane waves:     778
 k-point 34 :   0.4500 0.4500 0.3500  plane waves:     772
 k-point 35 :   0.4500 0.4500 0.4500  plane waves:     765

 maximum and minimum number of plane-waves per node :        40       28

 maximum number of plane-waves:       790
 maximum index in each direction: 
   IXMAX=    5   IYMAX=    5   IZMAX=    5
   IXMIN=   -6   IYMIN=   -6   IZMIN=   -6

 WARNING: aliasing errors must be expected set NGX to  24 to avoid them
 WARNING: aliasing errors must be expected set NGY to  24 to avoid them
 WARNING: aliasing errors must be expected set NGZ to  24 to avoid them
 aliasing errors are usually negligible using standard VASP settings
 and one can safely disregard these warnings

 real space projection operators:
  total allocation   :        828.28 KBytes
  max/ min on nodes  :         52.03          0.00


 parallel 3D FFT for wavefunctions:
    minimum data exchange during FFTs selected (reduces bandwidth)
 parallel 3D FFT for charge:
    minimum data exchange during FFTs selected (reduces bandwidth)


 total amount of memory used by VASP on root node    30682. kBytes
========================================================================

   base      :      30000. kBytes
   nonlr-proj:        144. kBytes
   fftplans  :         71. kBytes
   grid      :        123. kBytes
   one-center:         31. kBytes
   wavefun   :        313. kBytes
 
     INWAV:  cpu time    0.0000: real time    0.0000
 Broyden mixing: mesh for mixing (old mesh)
   NGX = 11   NGY = 11   NGZ = 11
  (NGX  = 36   NGY  = 36   NGZ  = 36)
  gives a total of   1331 points

 initial charge density was supplied:
 charge density of overlapping atoms calculated
 number of electron      26.0000000 magnetization       2.0000000
 keeping initial charge density in first step


--------------------------------------------------------------------------------------------------------


 Maximum index for non-local projection operator          241
 Maximum index for augmentation-charges          429 (set IRDMAX)


--------------------------------------------------------------------------------------------------------


 First call to EWALD:  gamma=   0.537
 Maximum number of real-space cells 3x 3x 3
 Maximum number of reciprocal cells 3x 3x 3

 FEWALD executed in parallel
    FEWALD:  cpu time    0.0020: real time    0.0025


----------------------------------------- Iteration    1(   1)  ---------------------------------------


    POTLOK:  cpu time    0.0152: real time    0.0199
    SETDIJ:  cpu time    0.0087: real time    0.0096
     EDDAV:  cpu time    0.6003: real time    0.6265
       DOS:  cpu time    0.0025: real time    0.0034
    --------------------------------------------
      LOOP:  cpu time    0.6303: real time    0.6704

 eigenvalue-minimisations  :  2808
 total energy-change (2. order) : 0.2699624E+03  (-0.1372909E+04)
 number of electron      26.0000000 magnetization       2.0000000
 augmentation part       26.0000000 magnetization       2.0000000

 Free energy of the ion-electron system (eV)
  ---------------------------------------------------
  alpha Z        PSCENC =       165.90714528
  Ewald energy   TEWEN  =     -2683.72959800
  -Hartree energ DENC   =      -493.39816438
  -exchange      EXHF   =         0.00000000
  -V(xc)+E(xc)   XCENC  =       114.10814259
  PAW double counting   =      2467.46322748    -2429.32784001
  entropy T*S    EENTRO =         0.00107010
  eigenvalues    EBANDS =        18.57832826
  atomic energy  EATOM  =      3110.36007685
  Solvation  Ediel_sol  =         0.00000000
  ---------------------------------------------------
  free energy    TOTEN  =       269.96238817 eV

  energy without entropy =      269.96131807  energy(sigma->0) =      269.96212064


--------------------------------------------------------------------------------------------------------




----------------------------------------- Iteration    1(   2)  ---------------------------------------


     EDDAV:  cpu time    0.6224: real time    0.6230
       DOS:  cpu time    0.0010: real time    0.0010
    --------------------------------------------
      LOOP:  cpu time    0.6250: real time    0.6318

 eigenvalue-minimisations  :  3232
 total energy-change (2. order) :-0.2826565E+03  ( 0.1438496E+03)
 number of electron      26.0000000 magnetization       2.0000000
 augmentation part       26.0000000 magnetization       2.0000000

 Free energy of the ion-electron system (eV)
  ---------------------------------------------------
  alpha Z        PSCENC =       165.90714528
  Ewald energy   TEWEN  =     -2683.72959800
  -Hartree energ DENC   =      -493.39816438
  -exchange      EXHF   =         0.00000000
  -V(xc)+E(xc)   XCENC  =       114.10814259
  PAW double counting   =      2467.46322748    -2429.32784001
  entropy T*S    EENTRO =        -0.00401292
  eigenvalues    EBANDS =      -264.07304130
  atomic energy  EATOM  =      3110.36007685
  Solvation  Ediel_sol  =         0.00000000
  ---------------------------------------------------
  free energy    TOTEN  =       -12.69406441 eV

  energy without entropy =      -12.69005149  energy(sigma->0) =      -12.69306118


--------------------------------------------------------------------------------------------------------




----------------------------------------- Iteration    1(   3)  ---------------------------------------


     EDDAV:  cpu time    0.8858: real time    0.8874
       DOS:  cpu time    0.0011: real time    0.0011
    --------------------------------------------
      LOOP:  cpu time    0.8879: real time    0.8963

 eigenvalue-minimisations  :  5240
 total energy-change (2. order) :-0.8222876E+04  (-0.7855401E+04)
 number of electron      26.0000000 magnetization       2.0000000
 augmentation part       26.0000000 magnetization       2.0000000

 Free energy of the ion-electron system (eV)
  ---------------------------------------------------
  alpha Z        PSCENC =       165.90714528
  Ewald energy   TEWEN  =     -2683.72959800
  -Hartree energ DENC   =      -493.39816438
  -exchange      EXHF   =         0.00000000
  -V(xc)+E(xc)   XCENC  =       114.10814259
  PAW double counting   =      2467.46322748    -2429.32784001
  entropy T*S    EENTRO =        -0.00505901
  eigenvalues    EBANDS =     -8486.94775439
  atomic energy  EATOM  =      3110.36007685
  Solvation  Ediel_sol  =         0.00000000
  ---------------------------------------------------
  free energy    TOTEN  =     -8235.56982359 eV

  energy without entropy =    -8235.56476458  energy(sigma->0) =    -8235.56855884


--------------------------------------------------------------------------------------------------------




----------------------------------------- Iteration    1(   4)  ---------------------------------------


     EDDAV:  cpu time    0.6866: real time    0.6867
       DOS:  cpu time    0.0011: real time    0.0011
    --------------------------------------------
      LOOP:  cpu time    0.6887: real time    0.6957

 eigenvalue-minimisations  :  3740
 total energy-change (2. order) : 0.7284504E+04  (-0.5603399E+03)
 number of electron      26.0000000 magnetization       2.0000000
 augmentation part       26.0000000 magnetization       2.0000000

 Free energy of the ion-electron system (eV)
  ---------------------------------------------------
  alpha Z        PSCENC =       165.90714528
  Ewald energy   TEWEN  =     -2683.72959800
  -Hartree energ DENC   =      -493.39816438
  -exchange      EXHF   =         0.00000000
  -V(xc)+E(xc)   XCENC  =       114.10814259
  PAW double counting   =      2467.46322748    -2429.32784001
  entropy T*S    EENTRO =        -0.00566223
  eigenvalues    EBANDS =     -1202.44312809
  atomic energy  EATOM  =      3110.36007685
  Solvation  Ediel_sol  =         0.00000000
  ---------------------------------------------------
  free energy    TOTEN  =      -951.06580051 eV

  energy without entropy =     -951.06013828  energy(sigma->0) =     -951.06438496


--------------------------------------------------------------------------------------------------------




----------------------------------------- Iteration    1(   5)  ---------------------------------------


     EDDAV:  cpu time    0.8217: real time    0.8217
       DOS:  cpu time    0.0011: real time    0.0011
    CHARGE:  cpu time    0.0302: real time    0.0336
    MIXING:  cpu time    0.0034: real time    0.0044
    --------------------------------------------
      LOOP:  cpu time    0.8577: real time    0.8684

 eigenvalue-minimisations  :  4672
 total energy-change (2. order) :-0.3198636E+03  (-0.7767336E+03)
 number of electron      25.9999981 magnetization       0.5028972
 augmentation part        2.3616941 magnetization      -0.2459752

 Broyden mixing:
  rms(total) = 0.62945E+01    rms(broyden)= 0.62945E+01
  rms(prec ) = 0.64334E+01
  weight for this iteration     100.00

 Free energy of the ion-electron system (eV)
  ---------------------------------------------------
  alpha Z        PSCENC =       165.90714528
  Ewald energy   TEWEN  =     -2683.72959800
  -Hartree energ DENC   =      -493.39816438
  -exchange      EXHF   =         0.00000000
  -V(xc)+E(xc)   XCENC  =       114.10814259
  PAW double counting   =      2467.46322748    -2429.32784001
  entropy T*S    EENTRO =        -0.00540783
  eigenvalues    EBANDS =     -1522.30700859
  atomic energy  EATOM  =      3110.36007685
  Solvation  Ediel_sol  =         0.00000000
  ---------------------------------------------------
  free energy    TOTEN  =     -1270.92942661 eV

  energy without entropy =    -1270.92401878  energy(sigma->0) =    -1270.92807466


--------------------------------------------------------------------------------------------------------




----------------------------------------- Iteration    1(   6)  ---------------------------------------


    POTLOK:  cpu time    0.0035: real time    0.0035
    SETDIJ:  cpu time    0.0036: real time    0.0036
    EDDIAG:  cpu time    0.1765: real time    0.1775
  RMM-DIIS:  cpu time    0.1913: real time    0.1915
    ORTHCH:  cpu time    0.0223: real time    0.0223
       DOS:  cpu time    0.0011: real time    0.0011
    CHARGE:  cpu time    0.0239: real time    0.0239
    MIXING:  cpu time    0.0015: real time    0.0046
    --------------------------------------------
      LOOP:  cpu time    0.4249: real time    0.4364

 eigenvalue-minimisations  :  2991
 total energy-change (2. order) : 0.1251883E+04  ( 0.3143050E+03)
 number of electron      25.9999980 magnetization       0.2721785
 augmentation part        2.5067090 magnetization       0.1683837

 Broyden mixing:
  rms(total) = 0.64340E+01    rms(broyden)= 0.64340E+01
  rms(prec ) = 0.64655E+01
  weight for this iteration     100.00

 eigenvalues of (default mixing * dielectric matrix)
  average eigenvalue GAMMA=   0.4201
  0.4201

 Free energy of the ion-electron system (eV)
  ---------------------------------------------------
  alpha Z        PSCENC =       165.90714528
  Ewald energy   TEWEN  =     -2683.72959800
  -Hartree energ DENC   =      -472.63640852
  -exchange      EXHF   =         0.00000000
  -V(xc)+E(xc)   XCENC  =       112.85276049
  PAW double counting   =      3671.18443049    -3632.12015111
  entropy T*S    EENTRO =        -0.00044145
  eigenvalues    EBANDS =      -290.86446892
  atomic energy  EATOM  =      3110.36007685
  Solvation  Ediel_sol  =         0.00000000
  ---------------------------------------------------
  free energy    TOTEN  =       -19.04665487 eV

  energy without entropy =      -19.04621343  energy(sigma->0) =      -19.04654451


--------------------------------------------------------------------------------------------------------




----------------------------------------- Iteration    1(   7)  ---------------------------------------


    POTLOK:  cpu time    0.0035: real time    0.0035
    SETDIJ:  cpu time    0.0035: real time    0.0035
    EDDIAG:  cpu time    0.1730: real time    0.1730
  RMM-DIIS:  cpu time    0.2073: real time    0.2073
    ORTHCH:  cpu time    0.0225: real time    0.0225
       DOS:  cpu time    0.0011: real time    0.0011
    CHARGE:  cpu time    0.0239: real time    0.0239
    MIXING:  cpu time    0.0004: real time    0.0008
    --------------------------------------------
      LOOP:  cpu time    0.4360: real time    0.4437

 eigenvalue-minimisations  :  3427
 total energy-change (2. order) : 0.1186176E+01  ( 0.4306322E+03)
 number of electron      25.9999981 magnetization       0.0731928
 augmentation part        2.4904231 magnetization       0.0392585

 Broyden mixing:
  rms(total) = 0.17213E+01    rms(broyden)= 0.17213E+01
  rms(prec ) = 0.17787E+01
  weight for this iteration     100.00

 eigenvalues of (default mixing * dielectric matrix)
  average eigenvalue GAMMA=   0.6667
  0.6667  0.6667

 Free energy of the ion-electron system (eV)
  ---------------------------------------------------
  alpha Z        PSCENC =       165.90714528
  Ewald energy   TEWEN  =     -2683.72959800
  -Hartree energ DENC   =      -468.13005486
  -exchange      EXHF   =         0.00000000
  -V(xc)+E(xc)   XCENC  =       112.58832452
  PAW double counting   =      3878.95361540    -3839.50064473
  entropy T*S    EENTRO =         0.00090154
  eigenvalues    EBANDS =      -294.31024489
  atomic energy  EATOM  =      3110.36007685
  Solvation  Ediel_sol  =         0.00000000
  ---------------------------------------------------
  free energy    TOTEN  =       -17.86047889 eV

  energy without entropy =      -17.86138043  energy(sigma->0) =      -17.86070427


--------------------------------------------------------------------------------------------------------




----------------------------------------- Iteration    1(   8)  ---------------------------------------


    POTLOK:  cpu time    0.0034: real time    0.0034
    SETDIJ:  cpu time    0.0034: real time    0.0034
    EDDIAG:  cpu time    0.1728: real time    0.1728
  RMM-DIIS:  cpu time    0.2005: real time    0.2005
    ORTHCH:  cpu time    0.0223: real time    0.0223
       DOS:  cpu time    0.0011: real time    0.0011
    CHARGE:  cpu time    0.0240: real time    0.0240
    MIXING:  cpu time    0.0002: real time    0.0002
    --------------------------------------------
      LOOP:  cpu time    0.4288: real time    0.4361

 eigenvalue-minimisations  :  3288
 total energy-change (2. order) :-0.7087470E-01  (-0.6162362E-01)
 number of electron      25.9999981 magnetization      -0.1246916
 augmentation part        2.4846500 magnetization      -0.0873103

 Broyden mixing:
  rms(total) = 0.10711E+01    rms(broyden)= 0.10711E+01
  rms(prec ) = 0.11084E+01
  weight for this iteration     100.00

 eigenvalues of (default mixing * dielectric matrix)
  average eigenvalue GAMMA=   1.2112
  0.6147  1.1512  1.8676

 Free energy of the ion-electron system (eV)
  ---------------------------------------------------
  alpha Z        PSCENC =       165.90714528
  Ewald energy   TEWEN  =     -2683.72959800
  -Hartree energ DENC   =      -464.14477228
  -exchange      EXHF   =         0.00000000
  -V(xc)+E(xc)   XCENC  =       112.36107013
  PAW double counting   =      3606.54352375    -3566.25034905
  entropy T*S    EENTRO =         0.00043584
  eigenvalues    EBANDS =      -298.97888610
  atomic energy  EATOM  =      3110.36007685
  Solvation  Ediel_sol  =         0.00000000
  ---------------------------------------------------
  free energy    TOTEN  =       -17.93135359 eV

  energy without entropy =      -17.93178942  energy(sigma->0) =      -17.93146255


--------------------------------------------------------------------------------------------------------




----------------------------------------- Iteration    1(   9)  ---------------------------------------


    POTLOK:  cpu time    0.0034: real time    0.0034
    SETDIJ:  cpu time    0.0034: real time    0.0034
    EDDIAG:  cpu time    0.1728: real time    0.1728
  RMM-DIIS:  cpu time    0.1970: real time    0.1970
    ORTHCH:  cpu time    0.0223: real time    0.0224
       DOS:  cpu time    0.0011: real time    0.0011
    CHARGE:  cpu time    0.0242: real time    0.0242
    MIXING:  cpu time    0.0002: real time    0.0002
    --------------------------------------------
      LOOP:  cpu time    0.4256: real time    0.4313

 eigenvalue-minimisations  :  3291
 total energy-change (2. order) :-0.9996532E-01  (-0.3529051E-01)
 number of electron      25.9999981 magnetization      -0.1398624
 augmentation part        2.4802364 magnetization      -0.0126446

 Broyden mixing:
  rms(total) = 0.30216E+00    rms(broyden)= 0.30216E+00
  rms(prec ) = 0.31083E+00
  weight for this iteration     100.00

 eigenvalues of (default mixing * dielectric matrix)
  average eigenvalue GAMMA=   1.2821
  2.4746  0.6297  0.8825  1.1414

 Free energy of the ion-electron system (eV)
  ---------------------------------------------------
  alpha Z        PSCENC =       165.90714528
  Ewald energy   TEWEN  =     -2683.72959800
  -Hartree energ DENC   =      -460.28355802
  -exchange      EXHF   =         0.00000000
  -V(xc)+E(xc)   XCENC  =       112.13139897
  PAW double counting   =      3111.79559777    -3069.20098164
  entropy T*S    EENTRO =        -0.00014146
  eigenvalues    EBANDS =      -305.01125866
  atomic energy  EATOM  =      3110.36007685
  Solvation  Ediel_sol  =         0.00000000
  ---------------------------------------------------
  free energy    TOTEN  =       -18.03131891 eV

  energy without entropy =      -18.03117745  energy(sigma->0) =      -18.03128355


--------------------------------------------------------------------------------------------------------




----------------------------------------- Iteration    1(  10)  ---------------------------------------


    POTLOK:  cpu time    0.0034: real time    0.0034
    SETDIJ:  cpu time    0.0034: real time    0.0034
    EDDIAG:  cpu time    0.1731: real time    0.1731
  RMM-DIIS:  cpu time    0.2159: real time    0.2159
    ORTHCH:  cpu time    0.0224: real time    0.0224
       DOS:  cpu time    0.0012: real time    0.0012
    CHARGE:  cpu time    0.0242: real time    0.0242
    MIXING:  cpu time    0.0004: real time    0.0011
    --------------------------------------------
      LOOP:  cpu time    0.4450: real time    0.4511

 eigenvalue-minimisations  :  3669
 total energy-change (2. order) :-0.2089692E+00  (-0.8453423E-02)
 number of electron      25.9999981 magnetization      -0.1048173
 augmentation part        2.4570480 magnetization       0.0008169

 Broyden mixing:
  rms(total) = 0.33790E-01    rms(broyden)= 0.33785E-01
  rms(prec ) = 0.50882E-01
  weight for this iteration     100.00

 eigenvalues of (default mixing * dielectric matrix)
  average eigenvalue GAMMA=   1.3117
  2.1511  2.1511  1.0078  0.6242  0.6242

 Free energy of the ion-electron system (eV)
  ---------------------------------------------------
  alpha Z        PSCENC =       165.90714528
  Ewald energy   TEWEN  =     -2683.72959800
  -Hartree energ DENC   =      -461.62132500
  -exchange      EXHF   =         0.00000000
  -V(xc)+E(xc)   XCENC  =       112.19381773
  PAW double counting   =      2989.11813055    -2945.52241320
  entropy T*S    EENTRO =        -0.00085814
  eigenvalues    EBANDS =      -304.94526422
  atomic energy  EATOM  =      3110.36007685
  Solvation  Ediel_sol  =         0.00000000
  ---------------------------------------------------
  free energy    TOTEN  =       -18.24028813 eV

  energy without entropy =      -18.23943000  energy(sigma->0) =      -18.24007360


--------------------------------------------------------------------------------------------------------




----------------------------------------- Iteration    1(  11)  ---------------------------------------


    POTLOK:  cpu time    0.0034: real time    0.0034
    SETDIJ:  cpu time    0.0034: real time    0.0034
    EDDIAG:  cpu time    0.1729: real time    0.1729
  RMM-DIIS:  cpu time    0.2068: real time    0.2068
    ORTHCH:  cpu time    0.0224: real time    0.0224
       DOS:  cpu time    0.0011: real time    0.0011
    CHARGE:  cpu time    0.0242: real time    0.0242
    MIXING:  cpu time    0.0003: real time    0.0003
    --------------------------------------------
      LOOP:  cpu time    0.4354: real time    0.4422

 eigenvalue-minimisations  :  3396
 total energy-change (2. order) :-0.3829911E+00  (-0.2110773E+00)
 number of electron      25.9999981 magnetization      -0.1031745
 augmentation part        2.4356673 magnetization      -0.0182422

 Broyden mixing:
  rms(total) = 0.26756E-01    rms(broyden)= 0.26744E-01
  rms(prec ) = 0.40174E-01
  weight for this iteration     100.00

 eigenvalues of (default mixing * dielectric matrix)
  average eigenvalue GAMMA=   1.1674
  2.5002  1.9700  1.0207  0.6213  0.5085  0.3835

 Free energy of the ion-electron system (eV)
  ---------------------------------------------------
  alpha Z        PSCENC =       165.90714528
  Ewald energy   TEWEN  =     -2683.72959800
  -Hartree energ DENC   =      -462.49333205
  -exchange      EXHF   =         0.00000000
  -V(xc)+E(xc)   XCENC  =       112.23680304
  PAW double counting   =      2979.83480377    -2935.90082394
  entropy T*S    EENTRO =        -0.00094043
  eigenvalues    EBANDS =      -304.83741378
  atomic energy  EATOM  =      3110.36007685
  Solvation  Ediel_sol  =         0.00000000
  ---------------------------------------------------
  free energy    TOTEN  =       -18.62327927 eV

  energy without entropy =      -18.62233884  energy(sigma->0) =      -18.62304416


--------------------------------------------------------------------------------------------------------




----------------------------------------- Iteration    1(  12)  ---------------------------------------


    POTLOK:  cpu time    0.0034: real time    0.0034
    SETDIJ:  cpu time    0.0034: real time    0.0034
    EDDIAG:  cpu time    0.1760: real time    0.1760
  RMM-DIIS:  cpu time    0.2294: real time    0.2294
    ORTHCH:  cpu time    0.0224: real time    0.0224
       DOS:  cpu time    0.0012: real time    0.0012
    CHARGE:  cpu time    0.0244: real time    0.0244
    MIXING:  cpu time    0.0003: real time    0.0003
    --------------------------------------------
      LOOP:  cpu time    0.4614: real time    0.4687

 eigenvalue-minimisations  :  3913
 total energy-change (2. order) :-0.5989456E+00  (-0.1332471E+00)
 number of electron      25.9999982 magnetization      -0.1302949
 augmentation part        2.4016124 magnetization      -0.1088258

 Broyden mixing:
  rms(total) = 0.53607E-01    rms(broyden)= 0.53597E-01
  rms(prec ) = 0.84368E-01
  weight for this iteration     100.00

 eigenvalues of (default mixing * dielectric matrix)
  average eigenvalue GAMMA=   1.1325
  2.6992  1.8206  1.1296  0.9530  0.6179  0.5872  0.1202

 Free energy of the ion-electron system (eV)
  ---------------------------------------------------
  alpha Z        PSCENC =       165.90714528
  Ewald energy   TEWEN  =     -2683.72959800
  -Hartree energ DENC   =      -462.60211937
  -exchange      EXHF   =         0.00000000
  -V(xc)+E(xc)   XCENC  =       112.24199660
  PAW double counting   =      2977.49545938    -2933.49244237
  entropy T*S    EENTRO =        -0.00184677
  eigenvalues    EBANDS =      -305.40089647
  atomic energy  EATOM  =      3110.36007685
  Solvation  Ediel_sol  =         0.00000000
  ---------------------------------------------------
  free energy    TOTEN  =       -19.22222486 eV

  energy without entropy =      -19.22037809  energy(sigma->0) =      -19.22176317


--------------------------------------------------------------------------------------------------------




----------------------------------------- Iteration    1(  13)  ---------------------------------------


    POTLOK:  cpu time    0.0037: real time    0.0037
    SETDIJ:  cpu time    0.0034: real time    0.0034
    EDDIAG:  cpu time    0.1799: real time    0.1799
  RMM-DIIS:  cpu time    0.2106: real time    0.2106
    ORTHCH:  cpu time    0.0223: real time    0.0223
       DOS:  cpu time    0.0011: real time    0.0011
    CHARGE:  cpu time    0.0244: real time    0.0244
    MIXING:  cpu time    0.0003: real time    0.0003
    --------------------------------------------
      LOOP:  cpu time    0.4469: real time    0.4541

 eigenvalue-minimisations  :  3594
 total energy-change (2. order) : 0.1448684E-01  ( 0.4497020E+02)
 number of electron      25.9999982 magnetization      -0.1435295
 augmentation part        2.3986400 magnetization      -0.1004256

 Broyden mixing:
  rms(total) = 0.84036E-01    rms(broyden)= 0.84021E-01
  rms(prec ) = 0.11936E+00
  weight for this iteration     100.00

 eigenvalues of (default mixing * dielectric matrix)
  average eigenvalue GAMMA=   1.0186
  2.6490  1.5547  1.3890  0.9948  0.6224  0.5496  0.1991  0.1902

 Free energy of the ion-electron system (eV)
  ---------------------------------------------------
  alpha Z        PSCENC =       165.90714528
  Ewald energy   TEWEN  =     -2683.72959800
  -Hartree energ DENC   =      -462.42590675
  -exchange      EXHF   =         0.00000000
  -V(xc)+E(xc)   XCENC  =       112.23322063
  PAW double counting   =      2970.12915898    -2926.13327150
  entropy T*S    EENTRO =        -0.00156857
  eigenvalues    EBANDS =      -305.54699493
  atomic energy  EATOM  =      3110.36007685
  Solvation  Ediel_sol  =         0.00000000
  ---------------------------------------------------
  free energy    TOTEN  =       -19.20773802 eV

  energy without entropy =      -19.20616944  energy(sigma->0) =      -19.20734587


--------------------------------------------------------------------------------------------------------




----------------------------------------- Iteration    1(  14)  ---------------------------------------


    POTLOK:  cpu time    0.0033: real time    0.0033
    SETDIJ:  cpu time    0.0034: real time    0.0034
    EDDIAG:  cpu time    0.1731: real time    0.1731
WARNING in EDDRMM: call to ZHEGV failed, returncode =   8  4  3
  RMM-DIIS:  cpu time    0.2179: real time    0.2180
    ORTHCH:  cpu time    0.0223: real time    0.0223
       DOS:  cpu time    0.0011: real time    0.0011
    CHARGE:  cpu time    0.0243: real time    0.0243
    MIXING:  cpu time    0.0003: real time    0.0003
    --------------------------------------------
      LOOP:  cpu time    0.4469: real time    0.4544

 eigenvalue-minimisations  :  3704
 total energy-change (2. order) :-0.3327074E+00  (-0.3187012E+00)
 number of electron      25.9999981 magnetization      -0.1454709
 augmentation part        2.4365126 magnetization      -0.0484886

 Broyden mixing:
  rms(total) = 0.37048E-01    rms(broyden)= 0.36995E-01
  rms(prec ) = 0.64693E-01
  weight for this iteration     100.00

 eigenvalues of (default mixing * dielectric matrix)
  average eigenvalue GAMMA=   0.9665
  2.5591  1.6468  1.6468  1.0226  0.6109  0.5965  0.2149  0.2724  0.1287

 Free energy of the ion-electron system (eV)
  ---------------------------------------------------
  alpha Z        PSCENC =       165.90714528
  Ewald energy   TEWEN  =     -2683.72959800
  -Hartree energ DENC   =      -462.30077151
  -exchange      EXHF   =         0.00000000
  -V(xc)+E(xc)   XCENC  =       112.22725521
  PAW double counting   =      2971.53199570    -2927.59853947
  entropy T*S    EENTRO =        -0.00098793
  eigenvalues    EBANDS =      -305.93702158
  atomic energy  EATOM  =      3110.36007685
  Solvation  Ediel_sol  =         0.00000000
  ---------------------------------------------------
  free energy    TOTEN  =       -19.54044544 eV

  energy without entropy =      -19.53945751  energy(sigma->0) =      -19.54019845


--------------------------------------------------------------------------------------------------------




----------------------------------------- Iteration    1(  15)  ---------------------------------------


    POTLOK:  cpu time    0.0033: real time    0.0034
    SETDIJ:  cpu time    0.0034: real time    0.0034
    EDDIAG:  cpu time    0.1727: real time    0.1727
  RMM-DIIS:  cpu time    0.1989: real time    0.1989
    ORTHCH:  cpu time    0.0224: real time    0.0224
       DOS:  cpu time    0.0012: real time    0.0012
    CHARGE:  cpu time    0.0247: real time    0.0247
    MIXING:  cpu time    0.0004: real time    0.0004
    --------------------------------------------
      LOOP:  cpu time    0.4283: real time    0.4356

 eigenvalue-minimisations  :  3454
 total energy-change (2. order) :-0.3989124E+00  (-0.6475664E-02)
 number of electron      25.9999981 magnetization      -0.1408083
 augmentation part        2.4330343 magnetization      -0.0620125

 Broyden mixing:
  rms(total) = 0.91021E-01    rms(broyden)= 0.91021E-01
  rms(prec ) = 0.10884E+00
  weight for this iteration     100.00

 eigenvalues of (default mixing * dielectric matrix)
  average eigenvalue GAMMA=   0.9012
  2.4815  1.6670  1.6670  0.9859  0.6261  0.5845  0.2211  0.3069  0.3069  0.1650

 Free energy of the ion-electron system (eV)
  ---------------------------------------------------
  alpha Z        PSCENC =       165.90714528
  Ewald energy   TEWEN  =     -2683.72959800
  -Hartree energ DENC   =      -462.44013939
  -exchange      EXHF   =         0.00000000
  -V(xc)+E(xc)   XCENC  =       112.23475715
  PAW double counting   =      2972.67464961    -2928.74752110
  entropy T*S    EENTRO =        -0.00153983
  eigenvalues    EBANDS =      -306.19718843
  atomic energy  EATOM  =      3110.36007685
  Solvation  Ediel_sol  =         0.00000000
  ---------------------------------------------------
  free energy    TOTEN  =       -19.93935786 eV

  energy without entropy =      -19.93781802  energy(sigma->0) =      -19.93897290


--------------------------------------------------------------------------------------------------------




----------------------------------------- Iteration    1(  16)  ---------------------------------------


    POTLOK:  cpu time    0.0034: real time    0.0034
    SETDIJ:  cpu time    0.0034: real time    0.0034
    EDDIAG:  cpu time    0.1727: real time    0.1727
  RMM-DIIS:  cpu time    0.1980: real time    0.1980
    ORTHCH:  cpu time    0.0225: real time    0.0225
       DOS:  cpu time    0.0013: real time    0.0013
    CHARGE:  cpu time    0.0243: real time    0.0243
    MIXING:  cpu time    0.0006: real time    0.0008
    --------------------------------------------
      LOOP:  cpu time    0.4272: real time    0.4345

 eigenvalue-minimisations  :  3277
 total energy-change (2. order) :-0.7219206E+00  ( 0.1974991E+00)
 number of electron      25.9999982 magnetization      -0.1341661
 augmentation part        2.3744221 magnetization      -0.1230047

 Broyden mixing:
  rms(total) = 0.10696E+00    rms(broyden)= 0.10691E+00
  rms(prec ) = 0.16115E+00
  weight for this iteration     100.00

 eigenvalues of (default mixing * dielectric matrix)
  average eigenvalue GAMMA=   0.9093
  2.8776  1.7058  1.7058  0.9984  0.5018  0.6247  0.6247  0.2399  0.2624  0.2624
  0.1984

 Free energy of the ion-electron system (eV)
  ---------------------------------------------------
  alpha Z        PSCENC =       165.90714528
  Ewald energy   TEWEN  =     -2683.72959800
  -Hartree energ DENC   =      -462.41444682
  -exchange      EXHF   =         0.00000000
  -V(xc)+E(xc)   XCENC  =       112.23341126
  PAW double counting   =      2981.53625574    -2937.61349164
  entropy T*S    EENTRO =        -0.00174244
  eigenvalues    EBANDS =      -306.93888873
  atomic energy  EATOM  =      3110.36007685
  Solvation  Ediel_sol  =         0.00000000
  ---------------------------------------------------
  free energy    TOTEN  =       -20.66127850 eV

  energy without entropy =      -20.65953605  energy(sigma->0) =      -20.66084289


--------------------------------------------------------------------------------------------------------




----------------------------------------- Iteration    1(  17)  ---------------------------------------


    POTLOK:  cpu time    0.0033: real time    0.0033
    SETDIJ:  cpu time    0.0034: real time    0.0034
    EDDIAG:  cpu time    0.1730: real time    0.1730
  RMM-DIIS:  cpu time    0.1768: real time    0.1768
    ORTHCH:  cpu time    0.0223: real time    0.0223
       DOS:  cpu time    0.0011: real time    0.0012
    CHARGE:  cpu time    0.0244: real time    0.0244
    MIXING:  cpu time    0.0004: real time    0.0004
    --------------------------------------------
      LOOP:  cpu time    0.4059: real time    0.4137

 eigenvalue-minimisations  :  3167
 total energy-change (2. order) : 0.3408735E+00  ( 0.2916195E+03)
 number of electron      25.9999981 magnetization      -0.1318446
 augmentation part        2.4367032 magnetization      -0.0348566

 Broyden mixing:
  rms(total) = 0.39951E-01    rms(broyden)= 0.39854E-01
  rms(prec ) = 0.70465E-01
  weight for this iteration     100.00

 eigenvalues of (default mixing * dielectric matrix)
  average eigenvalue GAMMA=   0.8360
  2.5850  1.6749  1.6749  1.0071  0.6217  0.6217  0.3898  0.3898  0.2433  0.3240
  0.3240  0.1753

 Free energy of the ion-electron system (eV)
  ---------------------------------------------------
  alpha Z        PSCENC =       165.90714528
  Ewald energy   TEWEN  =     -2683.72959800
  -Hartree energ DENC   =      -462.49190884
  -exchange      EXHF   =         0.00000000
  -V(xc)+E(xc)   XCENC  =       112.23688880
  PAW double counting   =      2976.91002383    -2932.91977663
  entropy T*S    EENTRO =        -0.00095095
  eigenvalues    EBANDS =      -306.59230535
  atomic energy  EATOM  =      3110.36007685
  Solvation  Ediel_sol  =         0.00000000
  ---------------------------------------------------
  free energy    TOTEN  =       -20.32040500 eV

  energy without entropy =      -20.31945406  energy(sigma->0) =      -20.32016727


--------------------------------------------------------------------------------------------------------




----------------------------------------- Iteration    1(  18)  ---------------------------------------


    POTLOK:  cpu time    0.0033: real time    0.0033
    SETDIJ:  cpu time    0.0034: real time    0.0034
    EDDIAG:  cpu time    0.1725: real time    0.1725
  RMM-DIIS:  cpu time    0.1678: real time    0.1678
    ORTHCH:  cpu time    0.0224: real time    0.0224
       DOS:  cpu time    0.0011: real time    0.0011
    CHARGE:  cpu time    0.0243: real time    0.0243
    MIXING:  cpu time    0.0005: real time    0.0005
    --------------------------------------------
      LOOP:  cpu time    0.3963: real time    0.4030

 eigenvalue-minimisations  :  2980
 total energy-change (2. order) :-0.2363535E-02  (-0.2103135E-02)
 number of electron      25.9999981 magnetization      -0.1231860
 augmentation part        2.4360205 magnetization      -0.0279435

 Broyden mixing:
  rms(total) = 0.38685E-01    rms(broyden)= 0.38681E-01
  rms(prec ) = 0.68763E-01
  weight for this iteration     100.00

 eigenvalues of (default mixing * dielectric matrix)
  average eigenvalue GAMMA=   0.8160
  2.4883  1.6714  1.6714  1.0083  0.6160  0.6160  0.6259  0.6259  0.2403  0.3299
  0.3299  0.2259  0.1588

 Free energy of the ion-electron system (eV)
  ---------------------------------------------------
  alpha Z        PSCENC =       165.90714528
  Ewald energy   TEWEN  =     -2683.72959800
  -Hartree energ DENC   =      -462.53389720
  -exchange      EXHF   =         0.00000000
  -V(xc)+E(xc)   XCENC  =       112.23887072
  PAW double counting   =      2976.22440335    -2932.21151174
  entropy T*S    EENTRO =        -0.00095623
  eigenvalues    EBANDS =      -306.57730157
  atomic energy  EATOM  =      3110.36007685
  Solvation  Ediel_sol  =         0.00000000
  ---------------------------------------------------
  free energy    TOTEN  =       -20.32276854 eV

  energy without entropy =      -20.32181230  energy(sigma->0) =      -20.32252948


--------------------------------------------------------------------------------------------------------




----------------------------------------- Iteration    1(  19)  ---------------------------------------


    POTLOK:  cpu time    0.0033: real time    0.0033
    SETDIJ:  cpu time    0.0034: real time    0.0034
    EDDIAG:  cpu time    0.1731: real time    0.1731
  RMM-DIIS:  cpu time    0.1874: real time    0.1874
    ORTHCH:  cpu time    0.0223: real time    0.0223
       DOS:  cpu time    0.0012: real time    0.0012
    CHARGE:  cpu time    0.0242: real time    0.0242
    MIXING:  cpu time    0.0005: real time    0.0005
    --------------------------------------------
      LOOP:  cpu time    0.4164: real time    0.4233

 eigenvalue-minimisations  :  3139
 total energy-change (2. order) :-0.4620747E-03  (-0.3930234E-03)
 number of electron      25.9999981 magnetization      -0.1449934
 augmentation part        2.4357478 magnetization      -0.0546066

 Broyden mixing:
  rms(total) = 0.34404E-01    rms(broyden)= 0.34404E-01
  rms(prec ) = 0.63061E-01
  weight for this iteration     100.00

 eigenvalues of (default mixing * dielectric matrix)
  average eigenvalue GAMMA=   0.8475
  2.3596  1.6931  1.5265  1.0099  1.0099  1.0078  0.6513  0.6224  0.2399  0.4180
  0.4180  0.3706  0.3706  0.1677

 Free energy of the ion-electron system (eV)
  ---------------------------------------------------
  alpha Z        PSCENC =       165.90714528
  Ewald energy   TEWEN  =     -2683.72959800
  -Hartree energ DENC   =      -462.63927075
  -exchange      EXHF   =         0.00000000
  -V(xc)+E(xc)   XCENC  =       112.24374436
  PAW double counting   =      2974.71485463    -2930.63172853
  entropy T*S    EENTRO =        -0.00096946
  eigenvalues    EBANDS =      -306.54748500
  atomic energy  EATOM  =      3110.36007685
  Solvation  Ediel_sol  =         0.00000000
  ---------------------------------------------------
  free energy    TOTEN  =       -20.32323061 eV

  energy without entropy =      -20.32226115  energy(sigma->0) =      -20.32298825


--------------------------------------------------------------------------------------------------------




----------------------------------------- Iteration    1(  20)  ---------------------------------------


    POTLOK:  cpu time    0.0034: real time    0.0034
    SETDIJ:  cpu time    0.0034: real time    0.0034
    EDDIAG:  cpu time    0.1728: real time    0.1728
  RMM-DIIS:  cpu time    0.1891: real time    0.1891
    ORTHCH:  cpu time    0.0223: real time    0.0223
       DOS:  cpu time    0.0012: real time    0.0012
    CHARGE:  cpu time    0.0243: real time    0.0243
    MIXING:  cpu time    0.0005: real time    0.0005
    --------------------------------------------
      LOOP:  cpu time    0.4179: real time    0.4244

 eigenvalue-minimisations  :  3180
 total energy-change (2. order) :-0.2115185E-03  (-0.9378782E-04)
 number of electron      25.9999981 magnetization      -0.1778415
 augmentation part        2.4359738 magnetization      -0.0755345

 Broyden mixing:
  rms(total) = 0.41886E-01    rms(broyden)= 0.41886E-01
  rms(prec ) = 0.74785E-01
  weight for this iteration     100.00

 eigenvalues of (default mixing * dielectric matrix)
  average eigenvalue GAMMA=   0.9539
  2.6115  1.7750  1.7750  1.8069  0.9819  0.9819  0.6288  0.6288  0.6798  0.6259
  0.5308  0.5308  0.2399  0.3437  0.1675

 Free energy of the ion-electron system (eV)
  ---------------------------------------------------
  alpha Z        PSCENC =       165.90714528
  Ewald energy   TEWEN  =     -2683.72959800
  -Hartree energ DENC   =      -462.39246149
  -exchange      EXHF   =         0.00000000
  -V(xc)+E(xc)   XCENC  =       112.23225065
  PAW double counting   =      2973.02959177    -2929.10007695
  entropy T*S    EENTRO =        -0.00093753
  eigenvalues    EBANDS =      -306.62943270
  atomic energy  EATOM  =      3110.36007685
  Solvation  Ediel_sol  =         0.00000000
  ---------------------------------------------------
  free energy    TOTEN  =       -20.32344213 eV

  energy without entropy =      -20.32250461  energy(sigma->0) =      -20.32320775


--------------------------------------------------------------------------------------------------------




----------------------------------------- Iteration    1(  21)  ---------------------------------------


    POTLOK:  cpu time    0.0033: real time    0.0033
    SETDIJ:  cpu time    0.0034: real time    0.0034
    EDDIAG:  cpu time    0.1729: real time    0.1729
  RMM-DIIS:  cpu time    0.2067: real time    0.2068
    ORTHCH:  cpu time    0.0223: real time    0.0223
       DOS:  cpu time    0.0012: real time    0.0012
    CHARGE:  cpu time    0.0243: real time    0.0243
    MIXING:  cpu time    0.0005: real time    0.0005
    --------------------------------------------
      LOOP:  cpu time    0.4358: real time    0.4431

 eigenvalue-minimisations  :  3400
 total energy-change (2. order) :-0.2858849E-03  (-0.5600370E-04)
 number of electron      25.9999981 magnetization      -0.1295331
 augmentation part        2.4359245 magnetization      -0.0091222

 Broyden mixing:
  rms(total) = 0.53695E-01    rms(broyden)= 0.53695E-01
  rms(prec ) = 0.93701E-01
  weight for this iteration     100.00

 eigenvalues of (default mixing * dielectric matrix)
  average eigenvalue GAMMA=   0.9496
  2.5679  1.6673  1.7882  1.2877  1.2877  1.0072  1.0072  0.6584  0.6324  0.6594
  0.6594  0.6047  0.6047  0.2399  0.3537  0.1675

 Free energy of the ion-electron system (eV)
  ---------------------------------------------------
  alpha Z        PSCENC =       165.90714528
  Ewald energy   TEWEN  =     -2683.72959800
  -Hartree energ DENC   =      -462.01353344
  -exchange      EXHF   =         0.00000000
  -V(xc)+E(xc)   XCENC  =       112.21457509
  PAW double counting   =      2964.86556272    -2921.16202884
  entropy T*S    EENTRO =        -0.00089370
  eigenvalues    EBANDS =      -306.76503397
  atomic energy  EATOM  =      3110.36007685
  Solvation  Ediel_sol  =         0.00000000
  ---------------------------------------------------
  free energy    TOTEN  =       -20.32372802 eV

  energy without entropy =      -20.32283431  energy(sigma->0) =      -20.32350459


--------------------------------------------------------------------------------------------------------




----------------------------------------- Iteration    1(  22)  ---------------------------------------


    POTLOK:  cpu time    0.0034: real time    0.0034
    SETDIJ:  cpu time    0.0034: real time    0.0034
    EDDIAG:  cpu time    0.1728: real time    0.1728
  RMM-DIIS:  cpu time    0.1761: real time    0.1761
    ORTHCH:  cpu time    0.0224: real time    0.0224
       DOS:  cpu time    0.0012: real time    0.0012
    CHARGE:  cpu time    0.0242: real time    0.0242
    MIXING:  cpu time    0.0006: real time    0.0006
    --------------------------------------------
      LOOP:  cpu time    0.4051: real time    0.4118

 eigenvalue-minimisations  :  3025
 total energy-change (2. order) : 0.2512266E-03  (-0.3944477E-04)
 number of electron      25.9999981 magnetization      -0.1564920
 augmentation part        2.4351645 magnetization      -0.0625165

 Broyden mixing:
  rms(total) = 0.35506E-01    rms(broyden)= 0.35506E-01
  rms(prec ) = 0.67620E-01
  weight for this iteration     100.00

 eigenvalues of (default mixing * dielectric matrix)
  average eigenvalue GAMMA=   0.9683
  2.6149  1.8446  1.8446  1.8193  0.8829  0.8829  1.0979  0.9977  0.6517  0.6329
  0.6450  0.6450  0.5697  0.5697  0.2399  0.3551  0.1675

 Free energy of the ion-electron system (eV)
  ---------------------------------------------------
  alpha Z        PSCENC =       165.90714528
  Ewald energy   TEWEN  =     -2683.72959800
  -Hartree energ DENC   =      -462.54257394
  -exchange      EXHF   =         0.00000000
  -V(xc)+E(xc)   XCENC  =       112.23890359
  PAW double counting   =      2972.90392186    -2928.84086535
  entropy T*S    EENTRO =        -0.00095993
  eigenvalues    EBANDS =      -306.61952714
  atomic energy  EATOM  =      3110.36007685
  Solvation  Ediel_sol  =         0.00000000
  ---------------------------------------------------
  free energy    TOTEN  =       -20.32347679 eV

  energy without entropy =      -20.32251685  energy(sigma->0) =      -20.32323681


--------------------------------------------------------------------------------------------------------




----------------------------------------- Iteration    1(  23)  ---------------------------------------


    POTLOK:  cpu time    0.0033: real time    0.0033
    SETDIJ:  cpu time    0.0034: real time    0.0034
    EDDIAG:  cpu time    0.1737: real time    0.1737
  RMM-DIIS:  cpu time    0.1968: real time    0.1968
    ORTHCH:  cpu time    0.0224: real time    0.0224
       DOS:  cpu time    0.0012: real time    0.0012
    CHARGE:  cpu time    0.0244: real time    0.0244
    MIXING:  cpu time    0.0006: real time    0.0006
    --------------------------------------------
      LOOP:  cpu time    0.4268: real time    0.4332

 eigenvalue-minimisations  :  3217
 total energy-change (2. order) :-0.2330167E-03  (-0.1392503E-04)
 number of electron      25.9999981 magnetization      -0.1435650
[...]
      4     -19.4754      1.00000
      5     -19.2987      1.00000
      6     -18.7767      1.00000
      7     -18.6516      1.00000
      8     -18.6107      1.00000
      9       8.6236      1.00000
     10       9.2531      1.00000
     11       9.7197      1.00000
     12       9.9332      1.00000
     13      10.1555      1.00000
     14      10.4492      0.99999
     15      14.3557      0.00000
     16      14.4010      0.00000
     17      14.9727      0.00000
     18      15.3061      0.00000
     19      16.9064      0.00000
     20      20.7805      0.00000

 k-point    28 :       0.4500    0.2500    0.2500
  band No.  band energies     occupation 
      1     -42.9366      1.00000
      2     -42.9034      1.00000
      3     -19.5831      1.00000
      4     -19.5576      1.00000
      5     -19.1272      1.00000
      6     -18.9472      1.00000
      7     -18.6135      1.00000
      8     -18.6019      1.00000
      9       8.7131      1.00000
     10       8.8698      1.00000
     11       9.7907      1.00000
     12       9.8437      1.00000
     13      10.6769      0.99751
     14      10.8923      1.02258
     15      14.1434      0.00000
     16      14.1767      0.00000
     17      15.2524      0.00000
     18      15.3085      0.00000
     19      17.9791      0.00000
     20      19.2621      0.00000

 k-point    29 :       0.3500    0.3500    0.2500
  band No.  band energies     occupation 
      1     -42.9486      1.00000
      2     -42.8868      1.00000
      3     -19.5543      1.00000
      4     -19.5465      1.00000
      5     -19.2641      1.00000
      6     -18.8353      1.00000
      7     -18.6561      1.00000
      8     -18.6235      1.00000
      9       8.8687      1.00000
     10       8.9341      1.00000
     11       9.7148      1.00000
     12       9.9524      1.00000
     13      10.4106      1.00000
     14      10.7393      0.99534
     15      14.4994      0.00000
     16      14.6754      0.00000
     17      14.9978      0.00000
     18      15.3210      0.00000
     19      17.9937      0.00000
     20      20.9723      0.00000

 k-point    30 :       0.4500    0.3500    0.2500
  band No.  band energies     occupation 
      1     -42.9247      1.00000
      2     -42.9034      1.00000
      3     -19.5951      1.00000
      4     -19.5938      1.00000
      5     -19.1263      1.00000
      6     -18.9689      1.00000
      7     -18.6455      1.00000
      8     -18.6258      1.00000
      9       8.7405      1.00000
     10       8.7597      1.00000
     11       9.6919      1.00000
     12       9.8147      1.00000
     13      11.0147      1.03217
     14      11.1798      0.41810
     15      14.5433      0.00000
     16      14.6391      0.00000
     17      15.2168      0.00000
     18      15.3193      0.00000
     19      18.9585      0.00000
     20      19.9665      0.00000

 k-point    31 :       0.4500    0.4500    0.2500
  band No.  band energies     occupation 
      1     -42.9141      1.00000
      2     -42.9067      1.00000
      3     -19.6224      1.00000
      4     -19.6209      1.00000
      5     -19.0635      1.00000
      6     -18.9988      1.00000
      7     -18.6708      1.00000
      8     -18.6554      1.00000
      9       8.6490      1.00000
     10       8.6806      1.00000
     11       9.5404      1.00000
     12       9.6160      1.00000
     13      11.6222      0.00358
     14      11.6870      0.00143
     15      14.7962      0.00000
     16      14.8612      0.00000
     17      15.2370      0.00000
     18      15.3017      0.00000
     19      19.6125      0.00000
     20      19.9976      0.00000

 k-point    32 :       0.3500    0.3500    0.3500
  band No.  band energies     occupation 
      1     -42.9317      1.00000
      2     -42.8920      1.00000
      3     -19.5448      1.00000
      4     -19.3941      1.00000
      5     -19.3941      1.00000
      6     -18.8170      1.00000
      7     -18.8170      1.00000
      8     -18.6491      1.00000
      9       8.9944      1.00000
     10       9.7078      1.00000
     11       9.7078      1.00000
     12       9.8286      1.00000
     13      10.4143      1.00000
     14      10.4143      1.00000
     15      14.9972      0.00000
     16      14.9972      0.00000
     17      15.0030      0.00000
     18      15.0030      0.00000
     19      19.1501      0.00000
     20      21.3305      0.00000

 k-point    33 :       0.4500    0.3500    0.3500
  band No.  band energies     occupation 
      1     -42.9151      1.00000
      2     -42.9014      1.00000
      3     -19.5322      1.00000
      4     -19.4859      1.00000
      5     -19.2053      1.00000
      6     -19.0064      1.00000
      7     -18.7668      1.00000
      8     -18.7030      1.00000
      9       9.0331      1.00000
     10       9.2739      1.00000
     11       9.8287      1.00000
     12      10.0803      1.00000
     13      10.5644      0.99970
     14      10.8011      0.99680
     15      14.9226      0.00000
     16      14.9544      0.00000
     17      15.2265      0.00000
     18      15.2338      0.00000
     19      20.0927      0.00000
     20      21.0084      0.00000

 k-point    34 :       0.4500    0.4500    0.3500
  band No.  band energies     occupation 
      1     -42.9070      1.00000
      2     -42.9023      1.00000
      3     -19.4845      1.00000
      4     -19.4523      1.00000
      5     -19.1638      1.00000
      6     -19.0521      1.00000
      7     -18.8420      1.00000
      8     -18.7930      1.00000
      9       9.2313      1.00000
     10       9.4874      1.00000
     11       9.6365      1.00000
     12       9.9037      1.00000
     13      10.8552      1.00782
     14      10.9481      1.04733
     15      15.0981      0.00000
     16      15.1171      0.00000
     17      15.2760      0.00000
     18      15.2810      0.00000
     19      20.8661      0.00000
     20      21.3633      0.00000

 k-point    35 :       0.4500    0.4500    0.4500
  band No.  band energies     occupation 
      1     -42.9019      1.00000
      2     -42.9003      1.00000
      3     -19.3509      1.00000
      4     -19.2531      1.00000
      5     -19.2531      1.00000
      6     -19.0427      1.00000
      7     -19.0427      1.00000
      8     -18.9407      1.00000
      9       9.5921      1.00000
     10       9.8917      1.00000
     11       9.8917      1.00000
     12      10.3317      1.00000
     13      10.3317      1.00000
     14      10.4291      0.99999
     15      15.2920      0.00000
     16      15.2920      0.00000
     17      15.2955      0.00000
     18      15.2955      0.00000
     19      20.8616      0.00000
     20      21.6845      0.00000


--------------------------------------------------------------------------------------------------------


 soft charge-density along one line, spin component           1
         0         1         2         3         4         5         6         7         8         9
 total charge-density along one line
 
 soft charge-density along one line, spin component           2
         0         1         2         3         4         5         6         7         8         9
 total charge-density along one line
 
 pseudopotential strength for first ion, spin component:           1
  5.472 -19.440  -0.000  -0.000   0.000   0.000   0.000  -0.000
-19.440   8.435  -0.000  -0.000  -0.000   0.000   0.000   0.000
 -0.000  -0.000  -9.368   0.000  -0.000   5.452  -0.000   0.000
 -0.000  -0.000   0.000  -9.368   0.000  -0.000   5.452  -0.000
  0.000  -0.000  -0.000   0.000  -9.368   0.000  -0.000   5.452
  0.000   0.000   5.452  -0.000   0.000   8.313   0.000  -0.000
  0.000   0.000  -0.000   5.452  -0.000   0.000   8.313   0.000
 -0.000   0.000   0.000  -0.000   5.452  -0.000   0.000   8.313
 -0.000  -0.000   0.000  -0.000  -0.000   0.000   0.000   0.000
  0.000   0.000  -0.000  -0.000  -0.000   0.000   0.000   0.000
 -0.000  -0.000   0.000  -0.000  -0.000  -0.000   0.000   0.000
  0.000   0.000  -0.000   0.000  -0.000   0.000   0.000   0.000
  0.000   0.000   0.000  -0.000   0.000  -0.000   0.000   0.000
 -0.000  -0.000   0.000  -0.000  -0.000   0.000   0.000   0.000
  0.000   0.000  -0.000  -0.000  -0.000   0.000   0.000   0.000
 -0.000  -0.000   0.000  -0.000  -0.000  -0.000   0.000   0.000
  0.000   0.000  -0.000   0.000  -0.000   0.000  -0.000   0.000
  0.000   0.000   0.000  -0.000   0.000  -0.000   0.000  -0.000
 pseudopotential strength for first ion, spin component:           2
  5.471 -19.438  -0.000  -0.000   0.000   0.000   0.000  -0.000
-19.438   8.433  -0.000  -0.000   0.000   0.000   0.000  -0.000
 -0.000  -0.000  -9.368   0.000  -0.000   5.453  -0.000   0.000
 -0.000  -0.000   0.000  -9.368   0.000  -0.000   5.453  -0.000
  0.000   0.000  -0.000   0.000  -9.368   0.000  -0.000   5.453
  0.000   0.000   5.453  -0.000   0.000   8.313   0.000  -0.000
  0.000   0.000  -0.000   5.453  -0.000   0.000   8.313   0.000
 -0.000  -0.000   0.000  -0.000   5.453  -0.000   0.000   8.313
 -0.000  -0.000   0.000  -0.000  -0.000  -0.000   0.000   0.000
  0.000   0.000  -0.000  -0.000  -0.000   0.000   0.000   0.000
 -0.000  -0.000   0.000  -0.000  -0.000  -0.000   0.000   0.000
  0.000   0.000  -0.000   0.000  -0.000   0.000  -0.000   0.000
  0.000   0.000   0.000  -0.000   0.000  -0.000   0.000  -0.000
 -0.000  -0.000   0.000  -0.000  -0.000  -0.000   0.000   0.000
  0.000   0.000  -0.000  -0.000  -0.000   0.000   0.000   0.000
 -0.000  -0.000   0.000  -0.000  -0.000  -0.000   0.000   0.000
  0.000   0.000  -0.000   0.000  -0.000   0.000  -0.000   0.000
  0.000   0.000   0.000  -0.000   0.000  -0.000   0.000  -0.000
 total augmentation occupancy for first ion, spin component:           1
  1.997  -0.037   0.000   0.000   0.000   0.000   0.000   0.000   0.000   0.000   0.000   0.000  -0.000   0.000  -0.000   0.000
 -0.037   1.478   0.000   0.000   0.000   0.000   0.000   0.000   0.000   0.000   0.000  -0.000   0.000  -0.000  -0.000  -0.000
  0.000   0.000   1.998   0.000   0.000  -0.029   0.000  -0.000   0.000   0.000   0.000   0.000  -0.000   0.000   0.000   0.000
  0.000   0.000   0.000   1.998   0.000  -0.000  -0.029  -0.000   0.000   0.000   0.000   0.000   0.000   0.000   0.000   0.000
  0.000   0.000   0.000   0.000   1.998  -0.000   0.000  -0.029   0.000   0.000   0.000   0.000   0.000   0.000   0.000   0.000
  0.000   0.000  -0.029  -0.000  -0.000   0.063   0.000  -0.000   0.000   0.000   0.000   0.000   0.000  -0.000  -0.000   0.000
  0.000   0.000   0.000  -0.029  -0.000  -0.000   0.063  -0.000   0.000  -0.000   0.000   0.000   0.000   0.000   0.000   0.000
  0.000   0.000  -0.000  -0.000  -0.029   0.000  -0.000   0.063  -0.000   0.000  -0.000   0.000   0.000  -0.000   0.000   0.000
 -0.000   0.000   0.000   0.000   0.000   0.000   0.000  -0.000   2.466  -0.000  -0.000   0.000   0.000  -0.896  -0.000   0.000
 -0.000   0.000   0.000   0.000   0.000   0.000  -0.000   0.000  -0.000   2.466  -0.000  -0.000  -0.000  -0.000  -0.896   0.000
  0.000   0.000   0.000   0.000   0.000   0.000   0.000  -0.000  -0.000   0.000   2.132  -0.000   0.000  -0.000   0.000  -0.842
  0.000   0.000   0.000   0.000   0.000   0.000   0.000   0.000  -0.000  -0.000  -0.000   2.466   0.000   0.000  -0.000   0.000
 -0.000   0.000   0.000  -0.000   0.000   0.000   0.000  -0.000   0.000  -0.000   0.000  -0.000   2.132   0.000  -0.000   0.000
  0.000  -0.000   0.000   0.000   0.000  -0.000   0.000  -0.000  -0.896   0.000  -0.000   0.000  -0.000   0.341  -0.000  -0.000
  0.000   0.000   0.000   0.000   0.000  -0.000   0.000   0.000  -0.000  -0.896  -0.000  -0.000   0.000   0.000   0.341   0.000
  0.000  -0.000   0.000   0.000  -0.000   0.000   0.000   0.000   0.000  -0.000  -0.842  -0.000  -0.000   0.000   0.000   0.342
 -0.000   0.000   0.000   0.000  -0.000   0.000  -0.000   0.000   0.000   0.000   0.000  -0.896  -0.000   0.000   0.000  -0.000
  0.000   0.000   0.000   0.000   0.000  -0.000   0.000   0.000   0.000  -0.000   0.000  -0.000  -0.842   0.000  -0.000   0.000
 total augmentation occupancy for first ion, spin component:           2
 -0.000  -0.000   0.000   0.000   0.000   0.000   0.000   0.000  -0.000   0.000   0.000   0.000  -0.000  -0.000   0.000   0.000
 -0.000   0.000   0.000   0.000   0.000   0.000   0.000   0.000   0.000   0.000   0.000   0.000   0.000  -0.000  -0.000  -0.000
  0.000   0.000  -0.000   0.000   0.000  -0.000   0.000   0.000   0.000  -0.000   0.000   0.000   0.000   0.000  -0.000   0.000
  0.000   0.000   0.000  -0.000   0.000   0.000  -0.000   0.000   0.000   0.000   0.000   0.000   0.000   0.000   0.000   0.000
  0.000   0.000   0.000   0.000  -0.000   0.000   0.000  -0.000  -0.000   0.000   0.000   0.000  -0.000   0.000   0.000  -0.000
  0.000   0.000  -0.000   0.000   0.000  -0.000   0.000   0.000   0.000  -0.000   0.000   0.000   0.000  -0.000  -0.000   0.000
  0.000   0.000   0.000  -0.000   0.000   0.000  -0.000   0.000  -0.000   0.000   0.000   0.000   0.000   0.000  -0.000   0.000
  0.000   0.000   0.000   0.000  -0.000   0.000   0.000  -0.000  -0.000  -0.000  -0.000   0.000   0.000   0.000  -0.000   0.000
 -0.000   0.000   0.000   0.000  -0.000   0.000  -0.000  -0.000  -0.001   0.000  -0.000  -0.000  -0.000   0.000  -0.000   0.000
  0.000   0.000  -0.000   0.000   0.000  -0.000   0.000   0.000   0.000  -0.001   0.000   0.000   0.000  -0.000   0.000   0.000
  0.000   0.000   0.000   0.000   0.000  -0.000  -0.000  -0.000  -0.000  -0.000  -0.001  -0.000  -0.000  -0.000  -0.000   0.000
  0.000   0.000   0.000   0.000   0.000   0.000   0.000   0.000  -0.000   0.000  -0.000  -0.001   0.000   0.000   0.000  -0.000
  0.000  -0.000   0.000   0.000   0.000  -0.000   0.000   0.000   0.000   0.000  -0.000   0.000  -0.001   0.000   0.000  -0.000
 -0.000  -0.000   0.000   0.000   0.000  -0.000   0.000   0.000   0.000  -0.000   0.000   0.000   0.000  -0.000   0.000  -0.000
  0.000  -0.000  -0.000   0.000   0.000  -0.000  -0.000  -0.000  -0.000   0.000  -0.000   0.000   0.000   0.000  -0.000   0.000
  0.000  -0.000   0.000   0.000  -0.000   0.000   0.000   0.000   0.000   0.000   0.000  -0.000   0.000  -0.000   0.000  -0.000
  0.000  -0.000   0.000  -0.000   0.000   0.000   0.000  -0.000   0.000  -0.000   0.000   0.000  -0.000   0.000   0.000   0.000
  0.000   0.000  -0.000   0.000   0.000   0.000   0.000   0.000  -0.000   0.000   0.000   0.000   0.000  -0.000   0.000   0.000


------------------------ aborting loop because EDIFF is reached ----------------------------------------


    CHARGE:  cpu time    0.0242: real time    0.0242
    FORLOC:  cpu time    0.0006: real time    0.0006
    FORNL :  cpu time    0.0801: real time    0.0803
    STRESS:  cpu time    0.2387: real time    0.2392
    FORCOR:  cpu time    0.0039: real time    0.0041
    FORHAR:  cpu time    0.0014: real time    0.0021
    MIXING:  cpu time    0.0018: real time    0.0018
    OFIELD:  cpu time    0.0004: real time    0.0008

  FORCE on cell =-STRESS in cart. coord.  units (eV):
  Direction    XX          YY          ZZ          XY          YZ          ZX
  --------------------------------------------------------------------------------------
  Alpha Z   165.90715   165.90715   165.90715
  Ewald    -894.57647  -894.57647  -894.57647     0.00000    -0.00000    -0.00000
  Hartree   154.65560   154.65560   154.65560    -0.00000    -0.00000    -0.00000
  E(xc)    -118.57627  -118.57627  -118.57627    -0.00000    -0.00000     0.00000
  Local     173.68965   173.68965   173.68965    -0.00000     0.00000     0.00000
  n-local    -4.91672   -27.55505   -41.96875     1.46076    -0.40807    -0.27915
  augment    36.44498    36.44498    36.44498    -0.00000    -0.00000    -0.00000
  Kinetic   471.54186   506.50567   544.78919     2.24105    -2.79253     1.34321
  Fock        0.00000     0.00000     0.00000     0.00000     0.00000     0.00000
  -------------------------------------------------------------------------------------
  Total       0.34337     0.34337     0.34337    -0.00000    -0.00000    -0.00000
  in kB      15.30839    15.30839    15.30839    -0.00000    -0.00000    -0.00000
  external pressure =       15.31 kB  Pullay stress =        0.00 kB


 VOLUME and BASIS-vectors are now :
 -----------------------------------------------------------------------------
  energy-cutoff  :      450.00
  volume of cell :       35.94
      direct lattice vectors                 reciprocal lattice vectors
     3.300000000  0.000000000  0.000000000     0.303030303  0.000000000  0.000000000
     0.000000000  3.300000000  0.000000000     0.000000000  0.303030303  0.000000000
     0.000000000  0.000000000  3.300000000     0.000000000  0.000000000  0.303030303

  length of vectors
     3.300000000  3.300000000  3.300000000     0.303030303  0.303030303  0.303030303


 FORCES acting on ions
    electron-ion (+dipol)            ewald-force                    non-local-force                 convergence-correction
 -----------------------------------------------------------------------------------------------
   -.428E-14 0.282E-14 -.228E-13   -.503E-14 -.870E-14 -.268E-14   0.000E+00 0.000E+00 0.000E+00   0.840E-14 -.161E-13 -.591E-14
   0.191E-12 -.152E-11 -.825E-13   0.838E-14 0.851E-14 -.679E-15   0.000E+00 0.000E+00 0.000E+00   -.214E-13 0.266E-13 0.212E-13
 -----------------------------------------------------------------------------------------------
   0.187E-12 -.151E-11 -.105E-12   0.335E-14 -.192E-15 -.336E-14   0.000E+00 0.000E+00 0.000E+00   -.130E-13 0.105E-13 0.153E-13
 
 
 POSITION                                       TOTAL-FORCE (eV/Angst)
 -----------------------------------------------------------------------------------
      0.00000      0.00000      0.00000        -0.000000     -0.000000     -0.000000
      1.65000      1.65000      1.65000         0.000000      0.000000      0.000000
 -----------------------------------------------------------------------------------
    total drift:                                0.000000     -0.000000     -0.000000


--------------------------------------------------------------------------------------------------------



  FREE ENERGIE OF THE ION-ELECTRON SYSTEM (eV)
  ---------------------------------------------------
  free  energy   TOTEN  =       -20.42598261 eV

  energy  without entropy=      -20.42417058  energy(sigma->0) =      -20.42552961
 


--------------------------------------------------------------------------------------------------------


    POTLOK:  cpu time    0.0080: real time    0.0082


--------------------------------------------------------------------------------------------------------




--------------------------------------------------------------------------------------------------------


  
 reached required accuracy - stopping structural energy minimisation
     LOOP+:  cpu time   25.6771: real time   26.1528
    4ORBIT:  cpu time    0.0000: real time    0.0000

 total amount of memory used by VASP on root node    30682. kBytes
========================================================================

   base      :      30000. kBytes
   nonlr-proj:        144. kBytes
   fftplans  :         71. kBytes
   grid      :        123. kBytes
   one-center:         31. kBytes
   wavefun   :        313. kBytes
 
  
  
 General timing and accounting informations for this job:
 ========================================================
  
                  Total CPU time used (sec):       26.644
                            User time (sec):       25.656
                          System time (sec):        0.987
                         Elapsed time (sec):       27.180
  
                   Maximum memory used (kb):       82700.
                   Average memory used (kb):           0.
  
                          Minor page faults:        49368
                          Major page faults:            0
                 Voluntary context switches:         2707
