 vasp.5.4.1 05Feb16 (build Mar 19 2020 08:54:17) complex                        
  
 executed on           IFC91_ompi date 2022.01.25  13:16:30
 running on   96 total cores
 distrk:  each k-point on   96 cores,    1 groups
 distr:  one band on NCORES_PER_BAND=  24 cores,    4 groups


--------------------------------------------------------------------------------------------------------


 INCAR:
 POTCAR:    PAW_PBE W 08Apr2002                   

 ----------------------------------------------------------------------------- 
|                                                                             |
|           W    W    AA    RRRRR   N    N  II  N    N   GGGG   !!!           |
|           W    W   A  A   R    R  NN   N  II  NN   N  G    G  !!!           |
|           W    W  A    A  R    R  N N  N  II  N N  N  G       !!!           |
|           W WW W  AAAAAA  RRRRR   N  N N  II  N  N N  G  GGG   !            |
|           WW  WW  A    A  R   R   N   NN  II  N   NN  G    G                |
|           W    W  A    A  R    R  N    N  II  N    N   GGGG   !!!           |
|                                                                             |
|      For optimal performance we recommend to set                            |
|        NCORE= 4 - approx SQRT( number of cores)                             |
|      NCORE specifies how many cores store one orbital (NPAR=cpu/NCORE).     |
|      This setting can  greatly improve the performance of VASP for DFT.     |
|      The default, NPAR=number of cores might be grossly inefficient         |
|      on modern multi-core architectures or massively parallel machines.     |
|      Do your own testing !!!!                                               |
|      Unfortunately you need to use the default for GW and RPA calculations. |
|      (for HF NCORE is supported but not extensively tested yet)             |
|                                                                             |
 ----------------------------------------------------------------------------- 

 POTCAR:    PAW_PBE W 08Apr2002                   
   VRHFIN =W : 6s5d                                                             
   LEXCH  = PE                                                                  
   EATOM  =   204.6103 eV,   15.0384 Ry                                         
                                                                                
   TITEL  = PAW_PBE W 08Apr2002                                                 
   LULTRA =        F    use ultrasoft PP ?                                      
   IUNSCR =        1    unscreen: 0-lin 1-nonlin 2-no                           
   RPACOR =    2.330    partial core radius                                     
   POMASS =  183.850; ZVAL   =    6.000    mass and valenz                      
   RCORE  =    2.750    outmost cutoff radius                                   
   RWIGS  =    2.750; RWIGS  =    1.455    wigner-seitz radius (au A)           
   ENMAX  =  223.057; ENMIN  =  167.293 eV                                      
   RCLOC  =    2.147    cutoff for local pot                                    
   LCOR   =        T    correct aug charges                                     
   LPAW   =        T    paw PP                                                  
   EAUG   =  373.438                                                            
   DEXC   =    0.000                                                            
   RMAX   =    2.801    core radius for proj-oper                               
   RAUG   =    1.300    factor for augmentation sphere                          
   RDEP   =    2.886    radius for radial grids                                 
   RDEPT  =    2.230    core radius for aug-charge                              
                                                                                
   Atomic configuration                                                         
   16 entries                                                                   
     n  l   j            E        occ.                                          
     1  0  0.50    -69465.5836   2.0000                                         
     2  0  0.50    -11986.2642   2.0000                                         
     2  1  1.50    -10479.8616   6.0000                                         
     3  0  0.50     -2759.0758   2.0000                                         
     3  1  1.50     -2313.1857   6.0000                                         
     3  2  2.50     -1801.1185  10.0000                                         
     4  0  0.50      -567.6791   2.0000                                         
     4  1  1.50      -421.4694   6.0000                                         
     4  2  2.50      -236.3473  10.0000                                         
     4  3  3.50       -31.2666  14.0000                                         
     5  0  0.50       -77.1085   2.0000                                         
     5  1  1.50       -41.3856   6.0000                                         
     5  2  2.50        -3.3185   5.0000                                         
     6  0  0.50        -5.1438   1.0000                                         
     6  1  0.50        -3.8096   0.0000                                         
     5  3  2.50        -1.3606   0.0000                                         
   Description                                                                  
     l       E           TYP  RCUT    TYP  RCUT                                 
     2     -3.3185288     23  2.500                                             
     2     -1.5965414     23  2.500                                             
     0     -5.1438054     23  2.500                                             
     0      4.9117504     23  2.500                                             
     1      2.7211652     23  2.750                                             
     1     27.2116520     23  2.750                                             
  local pseudopotential read in
  partial core-charges read in
  partial kinetic energy density read in
  atomic valenz-charges read in
  non local Contribution for L=           2  read in
    real space projection operators read in
  non local Contribution for L=           2  read in
    real space projection operators read in
  non local Contribution for L=           0  read in
    real space projection operators read in
  non local Contribution for L=           0  read in
    real space projection operators read in
  non local Contribution for L=           1  read in
    real space projection operators read in
  non local Contribution for L=           1  read in
    real space projection operators read in
    PAW grid and wavefunctions read in
 
   number of l-projection  operators is LMAX  =           6
   number of lm-projection operators is LMMAX =          18
 

 ----------------------------------------------------------------------------- 
|                                                                             |
|  ADVICE TO THIS USER RUNNING 'VASP/VAMP'   (HEAR YOUR MASTER'S VOICE ...):  |
|                                                                             |
|      You have a (more or less) 'small supercell' and for smaller cells      |
|      it is recommended  to use the reciprocal-space projection scheme!      |
|      The real space optimization is not  efficient for small cells and it   |
|      is also less accurate ...                                              |
|      Therefore set LREAL=.FALSE. in the  INCAR file                         |
|                                                                             |
 ----------------------------------------------------------------------------- 

 Optimization of the real space projectors (new method)

 maximal supplied QI-value         = 13.61
 optimisation between [QCUT,QGAM] = [ 10.75, 21.63] = [ 32.35,131.06] Ry 
 Optimized for a Real-space Cutoff    1.65 Angstroem

   l    n(q)    QCUT    max X(q) W(low)/X(q) W(high)/X(q)  e(spline) 
   2     10    10.749   130.855    0.24E-03    0.22E-03    0.39E-06
   2     10    10.749   114.007    0.24E-03    0.22E-03    0.39E-06
   0     11    10.749    84.709    0.32E-04    0.10E-04    0.34E-06
   0     11    10.749    49.163    0.26E-04    0.89E-05    0.31E-06
   1     10    10.749    15.765    0.14E-03    0.94E-05    0.22E-06
   1     10    10.749    10.638    0.10E-03    0.52E-05    0.16E-06
  PAW_PBE W 08Apr2002                   :
 energy of atom  1       EATOM= -204.6103
 kinetic energy error for atom=    0.0022 (will be added to EATOM!!)
 
 
 POSCAR: W Cell                                  
  positions in direct lattice
  No initial velocities read in
 exchange correlation table for  LEXCH =        8
   RHO(1)=    0.500       N(1)  =     2000
   RHO(2)=  100.500       N(2)  =     4000
 


--------------------------------------------------------------------------------------------------------


 ion  position               nearest neighbor table
   1  0.000  0.000  0.000-   2 2.74   2 2.74   2 2.74   2 2.74   2 2.74   2 2.74   2 2.74   2 2.74

   2  0.500  0.500  0.500-   1 2.74   1 2.74   1 2.74   1 2.74   1 2.74   1 2.74   1 2.74   1 2.74

 
  LATTYP: Found a simple cubic cell.
 ALAT       =     3.1600000000
  
  Lattice vectors:
  
 A1 = (   3.1600000000,   0.0000000000,   0.0000000000)
 A2 = (   0.0000000000,   3.1600000000,   0.0000000000)
 A3 = (   0.0000000000,   0.0000000000,   3.1600000000)


Analysis of symmetry for initial positions (statically):
=====================================================================
 Subroutine PRICEL returns following result:
 
  LATTYP: Found a body centered cubic cell.
 ALAT       =     3.1600000000
  
  Lattice vectors:
  
 A1 = (   1.5800000000,   1.5800000000,   1.5800000000)
 A2 = (   1.5800000000,  -1.5800000000,  -1.5800000000)
 A3 = (  -1.5800000000,   1.5800000000,  -1.5800000000)
 
   2 primitive cells build up your supercell.
 

 Routine SETGRP: Setting up the symmetry group for a 
 simple cubic supercell.


 Subroutine GETGRP returns: Found 48 space group operations
 (whereof 48 operations were pure point group operations)
 out of a pool of 48 trial point group operations.


The static configuration has the point symmetry O_h .


Analysis of symmetry for dynamics (positions and initial velocities):
=====================================================================
 Subroutine PRICEL returns following result:
 
  LATTYP: Found a body centered cubic cell.
 ALAT       =     3.1600000000
  
  Lattice vectors:
  
 A1 = (   1.5800000000,   1.5800000000,   1.5800000000)
 A2 = (   1.5800000000,  -1.5800000000,  -1.5800000000)
 A3 = (  -1.5800000000,   1.5800000000,  -1.5800000000)
 
   2 primitive cells build up your supercell.
 

 Routine SETGRP: Setting up the symmetry group for a 
 simple cubic supercell.


 Subroutine GETGRP returns: Found 48 space group operations
 (whereof 48 operations were pure point group operations)
 out of a pool of 48 trial point group operations.


The dynamic configuration has the point symmetry O_h .


Analysis of structural, dynamic, and magnetic symmetry:
=====================================================================
 Subroutine PRICEL returns following result:
 
  LATTYP: Found a body centered cubic cell.
 ALAT       =     3.1600000000
  
  Lattice vectors:
  
 A1 = (   1.5800000000,   1.5800000000,   1.5800000000)
 A2 = (   1.5800000000,  -1.5800000000,  -1.5800000000)
 A3 = (  -1.5800000000,   1.5800000000,  -1.5800000000)
 
   2 primitive cells build up your supercell.
 

 Routine SETGRP: Setting up the symmetry group for a 
 simple cubic supercell.


 Subroutine GETGRP returns: Found 48 space group operations
 (whereof 48 operations were pure point group operations)
 out of a pool of 48 trial point group operations.


The magnetic configuration has the point symmetry O_h .


 Subroutine INISYM returns: Found 48 space group operations
 (whereof 48 operations are pure point group operations),
 and found     2 'primitive' translations

 
 
 KPOINTS: k-points                                

Automatic generation of k-mesh.
Space group operators:
 irot       det(A)        alpha          n_x          n_y          n_z        tau_x        tau_y        tau_z
    1     1.000000     0.000000     1.000000     0.000000     0.000000     0.000000     0.000000     0.000000
    2    -1.000000     0.000000     1.000000     0.000000     0.000000     0.000000     0.000000     0.000000
    3     1.000000   120.000000    -0.577350    -0.577350    -0.577350     0.000000     0.000000     0.000000
    4    -1.000000   120.000000    -0.577350    -0.577350    -0.577350     0.000000     0.000000     0.000000
    5     1.000000   120.000000     0.577350     0.577350     0.577350     0.000000     0.000000     0.000000
    6    -1.000000   120.000000     0.577350     0.577350     0.577350     0.000000     0.000000     0.000000
    7     1.000000    90.000000     0.000000     0.000000    -1.000000     0.000000     0.000000     0.000000
    8    -1.000000    90.000000     0.000000     0.000000    -1.000000     0.000000     0.000000     0.000000
    9     1.000000   180.000000     0.000000     0.707107     0.707107     0.000000     0.000000     0.000000
   10    -1.000000   180.000000     0.000000     0.707107     0.707107     0.000000     0.000000     0.000000
   11     1.000000    90.000000     0.000000     1.000000     0.000000     0.000000     0.000000     0.000000
   12    -1.000000    90.000000     0.000000     1.000000     0.000000     0.000000     0.000000     0.000000
   13     1.000000   180.000000     0.000000     0.000000     1.000000     0.000000     0.000000     0.000000
   14    -1.000000   180.000000     0.000000     0.000000     1.000000     0.000000     0.000000     0.000000
   15     1.000000   120.000000    -0.577350     0.577350     0.577350     0.000000     0.000000     0.000000
   16    -1.000000   120.000000    -0.577350     0.577350     0.577350     0.000000     0.000000     0.000000
   17     1.000000   120.000000    -0.577350     0.577350    -0.577350     0.000000     0.000000     0.000000
   18    -1.000000   120.000000    -0.577350     0.577350    -0.577350     0.000000     0.000000     0.000000
   19     1.000000    90.000000     0.000000     0.000000     1.000000     0.000000     0.000000     0.000000
   20    -1.000000    90.000000     0.000000     0.000000     1.000000     0.000000     0.000000     0.000000
   21     1.000000    90.000000    -1.000000     0.000000     0.000000     0.000000     0.000000     0.000000
   22    -1.000000    90.000000    -1.000000     0.000000     0.000000     0.000000     0.000000     0.000000
   23     1.000000   180.000000     0.707107     0.000000     0.707107     0.000000     0.000000     0.000000
   24    -1.000000   180.000000     0.707107     0.000000     0.707107     0.000000     0.000000     0.000000
   25     1.000000   120.000000     0.577350    -0.577350     0.577350     0.000000     0.000000     0.000000
   26    -1.000000   120.000000     0.577350    -0.577350     0.577350     0.000000     0.000000     0.000000
   27     1.000000   120.000000    -0.577350    -0.577350     0.577350     0.000000     0.000000     0.000000
   28    -1.000000   120.000000    -0.577350    -0.577350     0.577350     0.000000     0.000000     0.000000
   29     1.000000   180.000000     1.000000     0.000000     0.000000     0.000000     0.000000     0.000000
   30    -1.000000   180.000000     1.000000     0.000000     0.000000     0.000000     0.000000     0.000000
   31     1.000000    90.000000     0.000000    -1.000000     0.000000     0.000000     0.000000     0.000000
   32    -1.000000    90.000000     0.000000    -1.000000     0.000000     0.000000     0.000000     0.000000
   33     1.000000   180.000000     0.707107     0.707107     0.000000     0.000000     0.000000     0.000000
   34    -1.000000   180.000000     0.707107     0.707107     0.000000     0.000000     0.000000     0.000000
   35     1.000000    90.000000     1.000000     0.000000     0.000000     0.000000     0.000000     0.000000
   36    -1.000000    90.000000     1.000000     0.000000     0.000000     0.000000     0.000000     0.000000
   37     1.000000   120.000000     0.577350    -0.577350    -0.577350     0.000000     0.000000     0.000000
   38    -1.000000   120.000000     0.577350    -0.577350    -0.577350     0.000000     0.000000     0.000000
   39     1.000000   180.000000     0.000000     1.000000     0.000000     0.000000     0.000000     0.000000
   40    -1.000000   180.000000     0.000000     1.000000     0.000000     0.000000     0.000000     0.000000
   41     1.000000   120.000000     0.577350     0.577350    -0.577350     0.000000     0.000000     0.000000
   42    -1.000000   120.000000     0.577350     0.577350    -0.577350     0.000000     0.000000     0.000000
   43     1.000000   180.000000     0.000000    -0.707107     0.707107     0.000000     0.000000     0.000000
   44    -1.000000   180.000000     0.000000    -0.707107     0.707107     0.000000     0.000000     0.000000
   45     1.000000   180.000000     0.707107    -0.707107     0.000000     0.000000     0.000000     0.000000
   46    -1.000000   180.000000     0.707107    -0.707107     0.000000     0.000000     0.000000     0.000000
   47     1.000000   180.000000     0.707107     0.000000    -0.707107     0.000000     0.000000     0.000000
   48    -1.000000   180.000000     0.707107     0.000000    -0.707107     0.000000     0.000000     0.000000
 
 Subroutine IBZKPT returns following result:
 ===========================================
 
 Found     35 irreducible k-points:
 
 Following reciprocal coordinates:
            Coordinates               Weight
  0.050000  0.050000  0.050000      8.000000
  0.150000  0.050000  0.050000     24.000000
  0.250000  0.050000  0.050000     24.000000
  0.350000  0.050000  0.050000     24.000000
  0.450000  0.050000  0.050000     24.000000
  0.150000  0.150000  0.050000     24.000000
  0.250000  0.150000  0.050000     48.000000
  0.350000  0.150000  0.050000     48.000000
  0.450000  0.150000  0.050000     48.000000
  0.250000  0.250000  0.050000     24.000000
  0.350000  0.250000  0.050000     48.000000
  0.450000  0.250000  0.050000     48.000000
  0.350000  0.350000  0.050000     24.000000
  0.450000  0.350000  0.050000     48.000000
  0.450000  0.450000  0.050000     24.000000
  0.150000  0.150000  0.150000      8.000000
  0.250000  0.150000  0.150000     24.000000
  0.350000  0.150000  0.150000     24.000000
  0.450000  0.150000  0.150000     24.000000
  0.250000  0.250000  0.150000     24.000000
  0.350000  0.250000  0.150000     48.000000
  0.450000  0.250000  0.150000     48.000000
  0.350000  0.350000  0.150000     24.000000
  0.450000  0.350000  0.150000     48.000000
  0.450000  0.450000  0.150000     24.000000
  0.250000  0.250000  0.250000      8.000000
  0.350000  0.250000  0.250000     24.000000
  0.450000  0.250000  0.250000     24.000000
  0.350000  0.350000  0.250000     24.000000
  0.450000  0.350000  0.250000     48.000000
  0.450000  0.450000  0.250000     24.000000
  0.350000  0.350000  0.350000      8.000000
  0.450000  0.350000  0.350000     24.000000
  0.450000  0.450000  0.350000     24.000000
  0.450000  0.450000  0.450000      8.000000
 
 Following cartesian coordinates:
            Coordinates               Weight
  0.015823  0.015823  0.015823      8.000000
  0.047468  0.015823  0.015823     24.000000
  0.079114  0.015823  0.015823     24.000000
  0.110759  0.015823  0.015823     24.000000
  0.142405  0.015823  0.015823     24.000000
  0.047468  0.047468  0.015823     24.000000
  0.079114  0.047468  0.015823     48.000000
  0.110759  0.047468  0.015823     48.000000
  0.142405  0.047468  0.015823     48.000000
  0.079114  0.079114  0.015823     24.000000
  0.110759  0.079114  0.015823     48.000000
  0.142405  0.079114  0.015823     48.000000
  0.110759  0.110759  0.015823     24.000000
  0.142405  0.110759  0.015823     48.000000
  0.142405  0.142405  0.015823     24.000000
  0.047468  0.047468  0.047468      8.000000
  0.079114  0.047468  0.047468     24.000000
  0.110759  0.047468  0.047468     24.000000
  0.142405  0.047468  0.047468     24.000000
  0.079114  0.079114  0.047468     24.000000
  0.110759  0.079114  0.047468     48.000000
  0.142405  0.079114  0.047468     48.000000
  0.110759  0.110759  0.047468     24.000000
  0.142405  0.110759  0.047468     48.000000
  0.142405  0.142405  0.047468     24.000000
  0.079114  0.079114  0.079114      8.000000
  0.110759  0.079114  0.079114     24.000000
  0.142405  0.079114  0.079114     24.000000
  0.110759  0.110759  0.079114     24.000000
  0.142405  0.110759  0.079114     48.000000
  0.142405  0.142405  0.079114     24.000000
  0.110759  0.110759  0.110759      8.000000
  0.142405  0.110759  0.110759     24.000000
  0.142405  0.142405  0.110759     24.000000
  0.142405  0.142405  0.142405      8.000000
 


--------------------------------------------------------------------------------------------------------




 Dimension of arrays:
   k-points           NKPTS =     35   k-points in BZ     NKDIM =     35   number of bands    NBANDS=     12
   number of dos      NEDOS =    301   number of ions     NIONS =      2
   non local maximal  LDIM  =      6   non local SUM 2l+1 LMDIM =     18
   total plane-waves  NPLWV =   4096
   max r-space proj   IRMAX =   2487   max aug-charges    IRDMAX=   7608
   dimension x,y,z NGX =    16 NGY =   16 NGZ =   16
   dimension x,y,z NGXF=    32 NGYF=   32 NGZF=   32
   support grid    NGXF=    32 NGYF=   32 NGZF=   32
   ions per type =               2
 NGX,Y,Z   is equivalent  to a cutoff of   8.42,  8.42,  8.42 a.u.
 NGXF,Y,Z  is equivalent  to a cutoff of  16.84, 16.84, 16.84 a.u.


 I would recommend the setting:
   dimension x,y,z NGX =    16 NGY =   16 NGZ =   16
 SYSTEM =  clean (100) surface                     
 POSCAR =  W Cell                                  

 Startparameter for this run:
   NWRITE =      2    write-flag & timer
   PREC   = normal    normal or accurate (medium, high low for compatibility)
   ISTART =      0    job   : 0-new  1-cont  2-samecut
   ICHARG =      2    charge: 1-file 2-atom 10-const
   ISPIN  =      2    spin polarized calculation?
   LNONCOLLINEAR =      F non collinear calculations
   LSORBIT =      F    spin-orbit coupling
   INIWAV =      1    electr: 0-lowe 1-rand  2-diag
   LASPH  =      F    aspherical Exc in radial PAW
   METAGGA=      F    non-selfconsistent MetaGGA calc.

 Electronic Relaxation 1
   ENCUT  =  450.0 eV  33.07 Ry    5.75 a.u.   5.47  5.47  5.47*2*pi/ulx,y,z
   ENINI  =  450.0     initial cutoff
   ENAUG  =  373.4 eV  augmentation charge cutoff
   NELM   =     60;   NELMIN=  2; NELMDL= -5     # of ELM steps 
   EDIFF  = 0.1E-05   stopping-criterion for ELM
   LREAL  =      T    real-space projection
   NLSPLINE    = F    spline interpolate recip. space projectors
   LCOMPAT=      F    compatible to vasp.4.4
   GGA_COMPAT  = T    GGA compatible to vasp.4.4-vasp.4.6
   LMAXPAW     = -100 max onsite density
   LMAXMIX     =    2 max onsite mixed and CHGCAR
   VOSKOWN=      0    Vosko Wilk Nusair interpolation
   ROPT   =   -0.00050
 Ionic relaxation
   EDIFFG = -.1E-01   stopping-criterion for IOM
   NSW    =    250    number of steps for IOM
   NBLOCK =      1;   KBLOCK =    250    inner block; outer block 
   IBRION =      2    ionic relax: 0-MD 1-quasi-New 2-CG
   NFREE  =      1    steps in history (QN), initial steepest desc. (CG)
   ISIF   =      2    stress and relaxation
   IWAVPR =     11    prediction:  0-non 1-charg 2-wave 3-comb
   ISYM   =      2    0-nonsym 1-usesym 2-fastsym
   LCORR  =      T    Harris-Foulkes like correction to forces

   POTIM  = 0.1000    time-step for ionic-motion
   TEIN   =    0.0    initial temperature
   TEBEG  =    0.0;   TEEND  =   0.0 temperature during run
   SMASS  =  -3.00    Nose mass-parameter (am)
   estimated Nose-frequenzy (Omega)   =  0.10E-29 period in steps =****** mass=  -0.228E-27a.u.
   SCALEE = 1.0000    scale energy and forces
   NPACO  =    256;   APACO  = 16.0  distance and # of slots for P.C.
   PSTRESS=    0.0 pullay stress

  Mass of Ions in am
   POMASS = 183.85
  Ionic Valenz
   ZVAL   =   6.00
  Atomic Wigner-Seitz radii
   RWIGS  =  -1.00
  virtual crystal weights 
   VCA    =   1.00
   NELECT =      12.0000    total number of electrons
   NUPDOWN=      -1.0000    fix difference up-down

 DOS related values:
   EMIN   =  10.00;   EMAX   =-10.00  energy-range for DOS
   EFERMI =   0.00
   ISMEAR =     2;   SIGMA  =   0.20  broadening in eV -4-tet -1-fermi 0-gaus

 Electronic relaxation 2 (details)
   IALGO  =     68    algorithm
   LDIAG  =      T    sub-space diagonalisation (order eigenvalues)
   LSUBROT=      F    optimize rotation matrix (better conditioning)
   TURBO    =      0    0=normal 1=particle mesh
   IRESTART =      0    0=no restart 2=restart with 2 vectors
   NREBOOT  =      0    no. of reboots
   NMIN     =      0    reboot dimension
   EREF     =   0.00    reference energy to select bands
   IMIX   =      4    mixing-type and parameters
     AMIX     =   0.40;   BMIX     =  1.00
     AMIX_MAG =   1.60;   BMIX_MAG =  1.00
     AMIN     =   0.10
     WC   =   100.;   INIMIX=   1;  MIXPRE=   1;  MAXMIX= -45

 Intra band minimization:
   WEIMIN = 0.0010     energy-eigenvalue tresh-hold
   EBREAK =  0.21E-07  absolut break condition
   DEPER  =   0.30     relativ break condition  

   TIME   =   0.40     timestep for ELM

  volume/ion in A,a.u.               =      15.78       106.47
  Fermi-wavevector in a.u.,A,eV,Ry     =   1.186082  2.241371 19.140557  1.406791
  Thomas-Fermi vector in A             =   2.322263
 
 Write flags
   LWAVE  =      F    write WAVECAR
   LCHARG =      F    write CHGCAR
   LVTOT  =      F    write LOCPOT, total local potential
   LVHAR  =      F    write LOCPOT, Hartree potential only
   LELF   =      F    write electronic localiz. function (ELF)
   LORBIT =      0    0 simple, 1 ext, 2 COOP (PROOUT)


 Dipole corrections
   LMONO  =      F    monopole corrections only (constant potential shift)
   LDIPOL =      F    correct potential (dipole corrections)
   IDIPOL =      0    1-x, 2-y, 3-z, 4-all directions 
   EPSILON=  1.0000000 bulk dielectric constant

 Exchange correlation treatment:
   GGA     =    --    GGA type
   LEXCH   =     8    internal setting for exchange type
   VOSKOWN=      0    Vosko Wilk Nusair interpolation
   LHFCALC =     F    Hartree Fock is set to
   LHFONE  =     F    Hartree Fock one center treatment
   AEXX    =    0.0000 exact exchange contribution

 Linear response parameters
   LEPSILON=     F    determine dielectric tensor
   LRPA    =     F    only Hartree local field effects (RPA)
   LNABLA  =     F    use nabla operator in PAW spheres
   LVEL    =     F    velocity operator in full k-point grid
   LINTERFAST=   F  fast interpolation
   KINTER  =     0    interpolate to denser k-point grid
   CSHIFT  =0.1000    complex shift for real part using Kramers Kronig
   OMEGAMAX=  -1.0    maximum frequency
   DEG_THRESHOLD= 0.2000000E-02 threshold for treating states as degnerate
   RTIME   =    0.100 relaxation time in fs

 Orbital magnetization related:
   ORBITALMAG=     F  switch on orbital magnetization
   LCHIMAG   =     F  perturbation theory with respect to B field
   DQ        =  0.001000  dq finite difference perturbation B field



--------------------------------------------------------------------------------------------------------


 conjugate gradient relaxation of ions
 charge density and potential will be updated during run
 spin polarized calculation
 RMM-DIIS sequential band-by-band and
  variant of blocked Davidson during initial phase
 perform sub-space diagonalisation
    before iterative eigenvector-optimisation
 modified Broyden-mixing scheme, WC =      100.0
 initial mixing is a Kerker type mixing with AMIX =  0.4000 and BMIX =      1.0000
 Hartree-type preconditioning will be used
 using additional bands            6
 real space projection scheme for non local part
 use partial core corrections
 calculate Harris-corrections to forces 
   (improved forces if not selfconsistent)
 use gradient corrections 
 use of overlap-Matrix (Vanderbilt PP)
 Methfessel and Paxton  Order N= 2 SIGMA  =   0.20


--------------------------------------------------------------------------------------------------------


  energy-cutoff  :      450.00
  volume of cell :       31.55
      direct lattice vectors                 reciprocal lattice vectors
     3.160000000  0.000000000  0.000000000     0.316455696  0.000000000  0.000000000
     0.000000000  3.160000000  0.000000000     0.000000000  0.316455696  0.000000000
     0.000000000  0.000000000  3.160000000     0.000000000  0.000000000  0.316455696

  length of vectors
     3.160000000  3.160000000  3.160000000     0.316455696  0.316455696  0.316455696


 
 k-points in units of 2pi/SCALE and weight: k-points                                
   0.01582278  0.01582278  0.01582278       0.008
   0.04746835  0.01582278  0.01582278       0.024
   0.07911392  0.01582278  0.01582278       0.024
   0.11075949  0.01582278  0.01582278       0.024
   0.14240506  0.01582278  0.01582278       0.024
   0.04746835  0.04746835  0.01582278       0.024
   0.07911392  0.04746835  0.01582278       0.048
   0.11075949  0.04746835  0.01582278       0.048
   0.14240506  0.04746835  0.01582278       0.048
   0.07911392  0.07911392  0.01582278       0.024
   0.11075949  0.07911392  0.01582278       0.048
   0.14240506  0.07911392  0.01582278       0.048
   0.11075949  0.11075949  0.01582278       0.024
   0.14240506  0.11075949  0.01582278       0.048
   0.14240506  0.14240506  0.01582278       0.024
   0.04746835  0.04746835  0.04746835       0.008
   0.07911392  0.04746835  0.04746835       0.024
   0.11075949  0.04746835  0.04746835       0.024
   0.14240506  0.04746835  0.04746835       0.024
   0.07911392  0.07911392  0.04746835       0.024
   0.11075949  0.07911392  0.04746835       0.048
   0.14240506  0.07911392  0.04746835       0.048
   0.11075949  0.11075949  0.04746835       0.024
   0.14240506  0.11075949  0.04746835       0.048
   0.14240506  0.14240506  0.04746835       0.024
   0.07911392  0.07911392  0.07911392       0.008
   0.11075949  0.07911392  0.07911392       0.024
   0.14240506  0.07911392  0.07911392       0.024
   0.11075949  0.11075949  0.07911392       0.024
   0.14240506  0.11075949  0.07911392       0.048
   0.14240506  0.14240506  0.07911392       0.024
   0.11075949  0.11075949  0.11075949       0.008
   0.14240506  0.11075949  0.11075949       0.024
   0.14240506  0.14240506  0.11075949       0.024
   0.14240506  0.14240506  0.14240506       0.008
 
 k-points in reciprocal lattice and weights: k-points                                
   0.05000000  0.05000000  0.05000000       0.008
   0.15000000  0.05000000  0.05000000       0.024
   0.25000000  0.05000000  0.05000000       0.024
   0.35000000  0.05000000  0.05000000       0.024
   0.45000000  0.05000000  0.05000000       0.024
   0.15000000  0.15000000  0.05000000       0.024
   0.25000000  0.15000000  0.05000000       0.048
   0.35000000  0.15000000  0.05000000       0.048
   0.45000000  0.15000000  0.05000000       0.048
   0.25000000  0.25000000  0.05000000       0.024
   0.35000000  0.25000000  0.05000000       0.048
   0.45000000  0.25000000  0.05000000       0.048
   0.35000000  0.35000000  0.05000000       0.024
   0.45000000  0.35000000  0.05000000       0.048
   0.45000000  0.45000000  0.05000000       0.024
   0.15000000  0.15000000  0.15000000       0.008
   0.25000000  0.15000000  0.15000000       0.024
   0.35000000  0.15000000  0.15000000       0.024
   0.45000000  0.15000000  0.15000000       0.024
   0.25000000  0.25000000  0.15000000       0.024
   0.35000000  0.25000000  0.15000000       0.048
   0.45000000  0.25000000  0.15000000       0.048
   0.35000000  0.35000000  0.15000000       0.024
   0.45000000  0.35000000  0.15000000       0.048
   0.45000000  0.45000000  0.15000000       0.024
   0.25000000  0.25000000  0.25000000       0.008
   0.35000000  0.25000000  0.25000000       0.024
   0.45000000  0.25000000  0.25000000       0.024
   0.35000000  0.35000000  0.25000000       0.024
   0.45000000  0.35000000  0.25000000       0.048
   0.45000000  0.45000000  0.25000000       0.024
   0.35000000  0.35000000  0.35000000       0.008
   0.45000000  0.35000000  0.35000000       0.024
   0.45000000  0.45000000  0.35000000       0.024
   0.45000000  0.45000000  0.45000000       0.008
 
 position of ions in fractional coordinates (direct lattice) 
   0.00000000  0.00000000  0.00000000
   0.50000000  0.50000000  0.50000000
 
 position of ions in cartesian coordinates  (Angst):
   0.00000000  0.00000000  0.00000000
   1.58000000  1.58000000  1.58000000
 


--------------------------------------------------------------------------------------------------------


 k-point  1 :   0.0500 0.0500 0.0500  plane waves:     709
 k-point  2 :   0.1500 0.0500 0.0500  plane waves:     693
 k-point  3 :   0.2500 0.0500 0.0500  plane waves:     689
 k-point  4 :   0.3500 0.0500 0.0500  plane waves:     688
 k-point  5 :   0.4500 0.0500 0.0500  plane waves:     678
 k-point  6 :   0.1500 0.1500 0.0500  plane waves:     692
 k-point  7 :   0.2500 0.1500 0.0500  plane waves:     691
 k-point  8 :   0.3500 0.1500 0.0500  plane waves:     685
 k-point  9 :   0.4500 0.1500 0.0500  plane waves:     684
 k-point 10 :   0.2500 0.2500 0.0500  plane waves:     691
 k-point 11 :   0.3500 0.2500 0.0500  plane waves:     686
 k-point 12 :   0.4500 0.2500 0.0500  plane waves:     688
 k-point 13 :   0.3500 0.3500 0.0500  plane waves:     685
 k-point 14 :   0.4500 0.3500 0.0500  plane waves:     684
 k-point 15 :   0.4500 0.4500 0.0500  plane waves:     677
 k-point 16 :   0.1500 0.1500 0.1500  plane waves:     688
 k-point 17 :   0.2500 0.1500 0.1500  plane waves:     689
 k-point 18 :   0.3500 0.1500 0.1500  plane waves:     687
 k-point 19 :   0.4500 0.1500 0.1500  plane waves:     681
 k-point 20 :   0.2500 0.2500 0.1500  plane waves:     692
 k-point 21 :   0.3500 0.2500 0.1500  plane waves:     684
 k-point 22 :   0.4500 0.2500 0.1500  plane waves:     680
 k-point 23 :   0.3500 0.3500 0.1500  plane waves:     685
 k-point 24 :   0.4500 0.3500 0.1500  plane waves:     683
 k-point 25 :   0.4500 0.4500 0.1500  plane waves:     679
 k-point 26 :   0.2500 0.2500 0.2500  plane waves:     690
 k-point 27 :   0.3500 0.2500 0.2500  plane waves:     685
 k-point 28 :   0.4500 0.2500 0.2500  plane waves:     677
 k-point 29 :   0.3500 0.3500 0.2500  plane waves:     684
 k-point 30 :   0.4500 0.3500 0.2500  plane waves:     677
 k-point 31 :   0.4500 0.4500 0.2500  plane waves:     675
 k-point 32 :   0.3500 0.3500 0.3500  plane waves:     678
 k-point 33 :   0.4500 0.3500 0.3500  plane waves:     674
 k-point 34 :   0.4500 0.4500 0.3500  plane waves:     673
 k-point 35 :   0.4500 0.4500 0.4500  plane waves:     675

 maximum and minimum number of plane-waves per node :        37       20

 maximum number of plane-waves:       709
 maximum index in each direction: 
   IXMAX=    5   IYMAX=    5   IZMAX=    5
   IXMIN=   -5   IYMIN=   -5   IZMIN=   -5

 WARNING: aliasing errors must be expected set NGX to  22 to avoid them
 WARNING: aliasing errors must be expected set NGY to  22 to avoid them
 WARNING: aliasing errors must be expected set NGZ to  22 to avoid them
 aliasing errors are usually negligible using standard VASP settings
 and one can safely disregard these warnings

 real space projection operators:
  total allocation   :        667.41 KBytes
  max/ min on nodes  :         47.53          0.00


 parallel 3D FFT for wavefunctions:
    minimum data exchange during FFTs selected (reduces bandwidth)
 parallel 3D FFT for charge:
    minimum data exchange during FFTs selected (reduces bandwidth)


 total amount of memory used by VASP on root node    30488. kBytes
========================================================================

   base      :      30000. kBytes
   nonlr-proj:        125. kBytes
   fftplans  :         60. kBytes
   grid      :         98. kBytes
   one-center:         31. kBytes
   wavefun   :        174. kBytes
 
     INWAV:  cpu time    0.0000: real time    0.0000
 Broyden mixing: mesh for mixing (old mesh)
   NGX = 11   NGY = 11   NGZ = 11
  (NGX  = 32   NGY  = 32   NGZ  = 32)
  gives a total of   1331 points

 initial charge density was supplied:
 charge density of overlapping atoms calculated
 number of electron      12.0000000 magnetization       2.0000000
 keeping initial charge density in first step


--------------------------------------------------------------------------------------------------------


 Maximum index for non-local projection operator          221
 Maximum index for augmentation-charges          437 (set IRDMAX)


--------------------------------------------------------------------------------------------------------


 First call to EWALD:  gamma=   0.561
 Maximum number of real-space cells 3x 3x 3
 Maximum number of reciprocal cells 3x 3x 3

 FEWALD executed in parallel
    FEWALD:  cpu time    0.0018: real time    0.0022


----------------------------------------- Iteration    1(   1)  ---------------------------------------


    POTLOK:  cpu time    0.0142: real time    0.0194
    SETDIJ:  cpu time    0.0094: real time    0.0110
     EDDAV:  cpu time    0.3931: real time    0.4178
       DOS:  cpu time    0.0024: real time    0.0031
    --------------------------------------------
      LOOP:  cpu time    0.4228: real time    0.4617

 eigenvalue-minimisations  :  1680
 total energy-change (2. order) : 0.2713131E+02  (-0.4970485E+03)
 number of electron      12.0000000 magnetization       2.0000000
 augmentation part       12.0000000 magnetization       2.0000000

 Free energy of the ion-electron system (eV)
  ---------------------------------------------------
  alpha Z        PSCENC =        92.39034843
  Ewald energy   TEWEN  =      -597.00973006
  -Hartree energ DENC   =       -11.73786161
  -exchange      EXHF   =         0.00000000
  -V(xc)+E(xc)   XCENC  =       -95.44956721
  PAW double counting   =       483.57643779     -365.30187148
  entropy T*S    EENTRO =        -0.00034390
  eigenvalues    EBANDS =       111.44769658
  atomic energy  EATOM  =       409.21620559
  Solvation  Ediel_sol  =         0.00000000
  ---------------------------------------------------
  free energy    TOTEN  =        27.13131412 eV

  energy without entropy =       27.13165802  energy(sigma->0) =       27.13140010


--------------------------------------------------------------------------------------------------------




----------------------------------------- Iteration    1(   2)  ---------------------------------------


     EDDAV:  cpu time    0.4528: real time    0.4534
       DOS:  cpu time    0.0008: real time    0.0008
    --------------------------------------------
      LOOP:  cpu time    0.4551: real time    0.4619

 eigenvalue-minimisations  :  2112
 total energy-change (2. order) :-0.4301731E+04  (-0.3722709E+04)
 number of electron      12.0000000 magnetization       2.0000000
 augmentation part       12.0000000 magnetization       2.0000000

 Free energy of the ion-electron system (eV)
  ---------------------------------------------------
  alpha Z        PSCENC =        92.39034843
  Ewald energy   TEWEN  =      -597.00973006
  -Hartree energ DENC   =       -11.73786161
  -exchange      EXHF   =         0.00000000
  -V(xc)+E(xc)   XCENC  =       -95.44956721
  PAW double counting   =       483.57643779     -365.30187148
  entropy T*S    EENTRO =        -0.00211854
  eigenvalues    EBANDS =     -4190.28151902
  atomic energy  EATOM  =       409.21620559
  Solvation  Ediel_sol  =         0.00000000
  ---------------------------------------------------
  free energy    TOTEN  =     -4274.59967612 eV

  energy without entropy =    -4274.59755758  energy(sigma->0) =    -4274.59914649


--------------------------------------------------------------------------------------------------------




----------------------------------------- Iteration    1(   3)  ---------------------------------------


     EDDAV:  cpu time    0.4351: real time    0.4351
       DOS:  cpu time    0.0007: real time    0.0007
    --------------------------------------------
      LOOP:  cpu time    0.4367: real time    0.4436

 eigenvalue-minimisations  :  2028
 total energy-change (2. order) : 0.3351645E+04  (-0.8898120E+03)
 number of electron      12.0000000 magnetization       2.0000000
 augmentation part       12.0000000 magnetization       2.0000000

 Free energy of the ion-electron system (eV)
  ---------------------------------------------------
  alpha Z        PSCENC =        92.39034843
  Ewald energy   TEWEN  =      -597.00973006
  -Hartree energ DENC   =       -11.73786161
  -exchange      EXHF   =         0.00000000
  -V(xc)+E(xc)   XCENC  =       -95.44956721
  PAW double counting   =       483.57643779     -365.30187148
  entropy T*S    EENTRO =        -0.00116729
  eigenvalues    EBANDS =      -838.63761735
  atomic energy  EATOM  =       409.21620559
  Solvation  Ediel_sol  =         0.00000000
  ---------------------------------------------------
  free energy    TOTEN  =      -922.95482320 eV

  energy without entropy =     -922.95365590  energy(sigma->0) =     -922.95453137


--------------------------------------------------------------------------------------------------------




----------------------------------------- Iteration    1(   4)  ---------------------------------------


     EDDAV:  cpu time    0.4081: real time    0.4081
       DOS:  cpu time    0.0007: real time    0.0007
    --------------------------------------------
      LOOP:  cpu time    0.4098: real time    0.4164

 eigenvalue-minimisations  :  1940
 total energy-change (2. order) : 0.8640620E+03  ( 0.2769668E+03)
 number of electron      12.0000000 magnetization       2.0000000
 augmentation part       12.0000000 magnetization       2.0000000

 Free energy of the ion-electron system (eV)
  ---------------------------------------------------
  alpha Z        PSCENC =        92.39034843
  Ewald energy   TEWEN  =      -597.00973006
  -Hartree energ DENC   =       -11.73786161
  -exchange      EXHF   =         0.00000000
  -V(xc)+E(xc)   XCENC  =       -95.44956721
  PAW double counting   =       483.57643779     -365.30187148
  entropy T*S    EENTRO =        -0.00193130
  eigenvalues    EBANDS =        25.42513084
  atomic energy  EATOM  =       409.21620559
  Solvation  Ediel_sol  =         0.00000000
  ---------------------------------------------------
  free energy    TOTEN  =       -58.89283901 eV

  energy without entropy =      -58.89090771  energy(sigma->0) =      -58.89235618


--------------------------------------------------------------------------------------------------------




----------------------------------------- Iteration    1(   5)  ---------------------------------------


     EDDAV:  cpu time    0.4325: real time    0.4325
       DOS:  cpu time    0.0008: real time    0.0008
    CHARGE:  cpu time    0.0198: real time    0.0236
    MIXING:  cpu time    0.0038: real time    0.0047
    --------------------------------------------
      LOOP:  cpu time    0.4578: real time    0.4691

 eigenvalue-minimisations  :  2076
 total energy-change (2. order) :-0.3912055E+03  (-0.3036208E+01)
 number of electron      11.9999994 magnetization      -0.1694998
 augmentation part        1.2143644 magnetization      -0.4599548

 Broyden mixing:
  rms(total) = 0.86750E+01    rms(broyden)= 0.86750E+01
  rms(prec ) = 0.88442E+01
  weight for this iteration     100.00

 Free energy of the ion-electron system (eV)
  ---------------------------------------------------
  alpha Z        PSCENC =        92.39034843
  Ewald energy   TEWEN  =      -597.00973006
  -Hartree energ DENC   =       -11.73786161
  -exchange      EXHF   =         0.00000000
  -V(xc)+E(xc)   XCENC  =       -95.44956721
  PAW double counting   =       483.57643779     -365.30187148
  entropy T*S    EENTRO =        -0.00140664
  eigenvalues    EBANDS =      -365.78093143
  atomic energy  EATOM  =       409.21620559
  Solvation  Ediel_sol  =         0.00000000
  ---------------------------------------------------
  free energy    TOTEN  =      -450.09837663 eV

  energy without entropy =     -450.09696999  energy(sigma->0) =     -450.09802497


--------------------------------------------------------------------------------------------------------




----------------------------------------- Iteration    1(   6)  ---------------------------------------


    POTLOK:  cpu time    0.0031: real time    0.0031
    SETDIJ:  cpu time    0.0035: real time    0.0035
    EDDIAG:  cpu time    0.1331: real time    0.1349
  RMM-DIIS:  cpu time    0.1126: real time    0.1129
    ORTHCH:  cpu time    0.0149: real time    0.0149
       DOS:  cpu time    0.0008: real time    0.0007
    CHARGE:  cpu time    0.0136: real time    0.0136
    MIXING:  cpu time    0.0018: real time    0.0048
    --------------------------------------------
      LOOP:  cpu time    0.2848: real time    0.2972

 eigenvalue-minimisations  :  1697
 total energy-change (2. order) : 0.4239245E+03  ( 0.8907352E+07)
 number of electron      11.9999994 magnetization      -0.1374157
 augmentation part        1.2884238 magnetization      -0.0411688

 Broyden mixing:
  rms(total) = 0.73513E+01    rms(broyden)= 0.73513E+01
  rms(prec ) = 0.74115E+01
  weight for this iteration     100.00

 eigenvalues of (default mixing * dielectric matrix)
  average eigenvalue GAMMA=   0.4382
  0.4382

 Free energy of the ion-electron system (eV)
  ---------------------------------------------------
  alpha Z        PSCENC =        92.39034843
  Ewald energy   TEWEN  =      -597.00973006
  -Hartree energ DENC   =        -7.65227455
  -exchange      EXHF   =         0.00000000
  -V(xc)+E(xc)   XCENC  =       -95.07162212
  PAW double counting   =      1302.46171826    -1185.77114925
  entropy T*S    EENTRO =         0.00355005
  eigenvalues    EBANDS =        55.25906207
  atomic energy  EATOM  =       409.21620559
  Solvation  Ediel_sol  =         0.00000000
  ---------------------------------------------------
  free energy    TOTEN  =       -26.17389159 eV

  energy without entropy =      -26.17744165  energy(sigma->0) =      -26.17477911


--------------------------------------------------------------------------------------------------------




----------------------------------------- Iteration    1(   7)  ---------------------------------------


    POTLOK:  cpu time    0.0030: real time    0.0030
    SETDIJ:  cpu time    0.0035: real time    0.0035
    EDDIAG:  cpu time    0.1319: real time    0.1319
  RMM-DIIS:  cpu time    0.0809: real time    0.0809
    ORTHCH:  cpu time    0.0148: real time    0.0148
       DOS:  cpu time    0.0007: real time    0.0007
    CHARGE:  cpu time    0.0137: real time    0.0137
    MIXING:  cpu time    0.0004: real time    0.0008
    --------------------------------------------
      LOOP:  cpu time    0.2499: real time    0.2578

 eigenvalue-minimisations  :  1683
 total energy-change (2. order) : 0.3233028E+00  ( 0.2697417E+03)
 number of electron      11.9999994 magnetization      -0.1244114
 augmentation part        1.3166640 magnetization      -0.0218766

 Broyden mixing:
  rms(total) = 0.93078E+00    rms(broyden)= 0.93078E+00
  rms(prec ) = 0.11481E+01
  weight for this iteration     100.00

 eigenvalues of (default mixing * dielectric matrix)
  average eigenvalue GAMMA=   0.7633
  0.8471  0.6794

 Free energy of the ion-electron system (eV)
  ---------------------------------------------------
  alpha Z        PSCENC =        92.39034843
  Ewald energy   TEWEN  =      -597.00973006
  -Hartree energ DENC   =        -6.59591135
  -exchange      EXHF   =         0.00000000
  -V(xc)+E(xc)   XCENC  =       -94.88275671
  PAW double counting   =      1632.09388345    -1515.84199249
  entropy T*S    EENTRO =         0.00415267
  eigenvalues    EBANDS =        54.77521169
  atomic energy  EATOM  =       409.21620559
  Solvation  Ediel_sol  =         0.00000000
  ---------------------------------------------------
  free energy    TOTEN  =       -25.85058877 eV

  energy without entropy =      -25.85474144  energy(sigma->0) =      -25.85162693


--------------------------------------------------------------------------------------------------------




----------------------------------------- Iteration    1(   8)  ---------------------------------------


    POTLOK:  cpu time    0.0055: real time    0.0055
    SETDIJ:  cpu time    0.0034: real time    0.0034
    EDDIAG:  cpu time    0.1303: real time    0.1303
  RMM-DIIS:  cpu time    0.0813: real time    0.0813
    ORTHCH:  cpu time    0.0147: real time    0.0147
       DOS:  cpu time    0.0008: real time    0.0008
    CHARGE:  cpu time    0.0135: real time    0.0135
    MIXING:  cpu time    0.0003: real time    0.0003
    --------------------------------------------
      LOOP:  cpu time    0.2508: real time    0.2580

 eigenvalue-minimisations  :  1686
 total energy-change (2. order) : 0.1370944E+00  (-0.1991246E-01)
 number of electron      11.9999993 magnetization      -0.1640074
 augmentation part        1.3442617 magnetization      -0.0496356

 Broyden mixing:
  rms(total) = 0.42338E+00    rms(broyden)= 0.42338E+00
  rms(prec ) = 0.55072E+00
  weight for this iteration     100.00

 eigenvalues of (default mixing * dielectric matrix)
  average eigenvalue GAMMA=   1.2527
  0.6163  1.0827  2.0591

 Free energy of the ion-electron system (eV)
  ---------------------------------------------------
  alpha Z        PSCENC =        92.39034843
  Ewald energy   TEWEN  =      -597.00973006
  -Hartree energ DENC   =        -5.40872384
  -exchange      EXHF   =         0.00000000
  -V(xc)+E(xc)   XCENC  =       -94.62792947
  PAW double counting   =      1632.25439199    -1516.55414676
  entropy T*S    EENTRO =         0.00332464
  eigenvalues    EBANDS =        54.02276515
  atomic energy  EATOM  =       409.21620559
  Solvation  Ediel_sol  =         0.00000000
  ---------------------------------------------------
  free energy    TOTEN  =       -25.71349434 eV

  energy without entropy =      -25.71681898  energy(sigma->0) =      -25.71432550


--------------------------------------------------------------------------------------------------------




----------------------------------------- Iteration    1(   9)  ---------------------------------------


    POTLOK:  cpu time    0.0030: real time    0.0030
    SETDIJ:  cpu time    0.0034: real time    0.0034
    EDDIAG:  cpu time    0.1301: real time    0.1301
  RMM-DIIS:  cpu time    0.0806: real time    0.0806
    ORTHCH:  cpu time    0.0147: real time    0.0147
       DOS:  cpu time    0.0008: real time    0.0008
    CHARGE:  cpu time    0.0136: real time    0.0136
    MIXING:  cpu time    0.0004: real time    0.0010
    --------------------------------------------
      LOOP:  cpu time    0.2475: real time    0.2554

 eigenvalue-minimisations  :  1685
 total energy-change (2. order) :-0.3309137E-01  (-0.5956264E-01)
 number of electron      11.9999993 magnetization      -0.1060001
 augmentation part        1.3791527 magnetization      -0.0052884

 Broyden mixing:
  rms(total) = 0.19866E+00    rms(broyden)= 0.19866E+00
  rms(prec ) = 0.20099E+00
  weight for this iteration     100.00

 eigenvalues of (default mixing * dielectric matrix)
  average eigenvalue GAMMA=   1.1678
  2.1246  1.1854  0.6459  0.7153

 Free energy of the ion-electron system (eV)
  ---------------------------------------------------
  alpha Z        PSCENC =        92.39034843
  Ewald energy   TEWEN  =      -597.00973006
  -Hartree energ DENC   =        -4.28307213
  -exchange      EXHF   =         0.00000000
  -V(xc)+E(xc)   XCENC  =       -94.32391704
  PAW double counting   =      1597.15540368    -1482.09197500
  entropy T*S    EENTRO =         0.00006228
  eigenvalues    EBANDS =        53.20008854
  atomic energy  EATOM  =       409.21620559
  Solvation  Ediel_sol  =         0.00000000
  ---------------------------------------------------
  free energy    TOTEN  =       -25.74658571 eV

  energy without entropy =      -25.74664799  energy(sigma->0) =      -25.74660128


--------------------------------------------------------------------------------------------------------




----------------------------------------- Iteration    1(  10)  ---------------------------------------


    POTLOK:  cpu time    0.0030: real time    0.0030
    SETDIJ:  cpu time    0.0034: real time    0.0034
    EDDIAG:  cpu time    0.1304: real time    0.1304
  RMM-DIIS:  cpu time    0.0816: real time    0.0816
    ORTHCH:  cpu time    0.0148: real time    0.0148
       DOS:  cpu time    0.0008: real time    0.0008
    CHARGE:  cpu time    0.0136: real time    0.0136
    MIXING:  cpu time    0.0003: real time    0.0003
    --------------------------------------------
      LOOP:  cpu time    0.2488: real time    0.2554

 eigenvalue-minimisations  :  1691
 total energy-change (2. order) :-0.3653680E-01  (-0.1972700E-01)
 number of electron      11.9999993 magnetization      -0.0189780
 augmentation part        1.3843289 magnetization       0.0456844

 Broyden mixing:
  rms(total) = 0.13165E+00    rms(broyden)= 0.13165E+00
  rms(prec ) = 0.13399E+00
  weight for this iteration     100.00

 eigenvalues of (default mixing * dielectric matrix)
  average eigenvalue GAMMA=   1.1228
  2.0058  1.4210  0.6089  0.7890  0.7890

 Free energy of the ion-electron system (eV)
  ---------------------------------------------------
  alpha Z        PSCENC =        92.39034843
  Ewald energy   TEWEN  =      -597.00973006
  -Hartree energ DENC   =        -4.34718603
  -exchange      EXHF   =         0.00000000
  -V(xc)+E(xc)   XCENC  =       -94.33603367
  PAW double counting   =      1578.60461514    -1463.54405596
  entropy T*S    EENTRO =         0.00172542
  eigenvalues    EBANDS =        53.24098863
  atomic energy  EATOM  =       409.21620559
  Solvation  Ediel_sol  =         0.00000000
  ---------------------------------------------------
  free energy    TOTEN  =       -25.78312251 eV

  energy without entropy =      -25.78484793  energy(sigma->0) =      -25.78355387


--------------------------------------------------------------------------------------------------------




----------------------------------------- Iteration    1(  11)  ---------------------------------------


    POTLOK:  cpu time    0.0029: real time    0.0029
    SETDIJ:  cpu time    0.0034: real time    0.0034
    EDDIAG:  cpu time    0.1303: real time    0.1303
  RMM-DIIS:  cpu time    0.0810: real time    0.0810
    ORTHCH:  cpu time    0.0148: real time    0.0148
       DOS:  cpu time    0.0008: real time    0.0008
    CHARGE:  cpu time    0.0136: real time    0.0136
    MIXING:  cpu time    0.0003: real time    0.0003
    --------------------------------------------
      LOOP:  cpu time    0.2482: real time    0.2547

 eigenvalue-minimisations  :  1688
 total energy-change (2. order) :-0.9251074E-01  (-0.2169957E-01)
 number of electron      11.9999993 magnetization      -0.0056265
 augmentation part        1.3841238 magnetization       0.0255589

 Broyden mixing:
  rms(total) = 0.25965E-01    rms(broyden)= 0.25965E-01
  rms(prec ) = 0.28510E-01
  weight for this iteration     100.00

 eigenvalues of (default mixing * dielectric matrix)
  average eigenvalue GAMMA=   1.4099
  3.0480  2.3154  1.0557  0.7838  0.6512  0.6055

 Free energy of the ion-electron system (eV)
  ---------------------------------------------------
  alpha Z        PSCENC =        92.39034843
  Ewald energy   TEWEN  =      -597.00973006
  -Hartree energ DENC   =        -4.47881257
  -exchange      EXHF   =         0.00000000
  -V(xc)+E(xc)   XCENC  =       -94.36316872
  PAW double counting   =      1553.92828529    -1438.84730720
  entropy T*S    EENTRO =         0.00281948
  eigenvalues    EBANDS =        53.28572653
  atomic energy  EATOM  =       409.21620559
  Solvation  Ediel_sol  =         0.00000000
  ---------------------------------------------------
  free energy    TOTEN  =       -25.87563324 eV

  energy without entropy =      -25.87845272  energy(sigma->0) =      -25.87633811


--------------------------------------------------------------------------------------------------------




----------------------------------------- Iteration    1(  12)  ---------------------------------------


    POTLOK:  cpu time    0.0029: real time    0.0029
    SETDIJ:  cpu time    0.0034: real time    0.0034
    EDDIAG:  cpu time    0.1303: real time    0.1303
  RMM-DIIS:  cpu time    0.0812: real time    0.0812
    ORTHCH:  cpu time    0.0147: real time    0.0148
       DOS:  cpu time    0.0008: real time    0.0008
    CHARGE:  cpu time    0.0137: real time    0.0137
    MIXING:  cpu time    0.0003: real time    0.0003
    --------------------------------------------
      LOOP:  cpu time    0.2484: real time    0.2550

 eigenvalue-minimisations  :  1689
 total energy-change (2. order) :-0.2585514E-01  (-0.1269823E-01)
 number of electron      11.9999993 magnetization      -0.0320166
 augmentation part        1.3840405 magnetization      -0.0091851

 Broyden mixing:
  rms(total) = 0.47608E-01    rms(broyden)= 0.47608E-01
  rms(prec ) = 0.49187E-01
  weight for this iteration     100.00

 eigenvalues of (default mixing * dielectric matrix)
  average eigenvalue GAMMA=   1.3212
  3.2140  2.1099  1.1328  0.7856  0.7856  0.6103  0.6103

 Free energy of the ion-electron system (eV)
  ---------------------------------------------------
  alpha Z        PSCENC =        92.39034843
  Ewald energy   TEWEN  =      -597.00973006
  -Hartree energ DENC   =        -4.50087640
  -exchange      EXHF   =         0.00000000
  -V(xc)+E(xc)   XCENC  =       -94.36337528
  PAW double counting   =      1546.83650628    -1431.76044849
  entropy T*S    EENTRO =         0.00284302
  eigenvalues    EBANDS =        53.28703854
  atomic energy  EATOM  =       409.21620559
  Solvation  Ediel_sol  =         0.00000000
  ---------------------------------------------------
  free energy    TOTEN  =       -25.90148839 eV

  energy without entropy =      -25.90433140  energy(sigma->0) =      -25.90219914


--------------------------------------------------------------------------------------------------------




----------------------------------------- Iteration    1(  13)  ---------------------------------------


    POTLOK:  cpu time    0.0029: real time    0.0029
    SETDIJ:  cpu time    0.0034: real time    0.0034
    EDDIAG:  cpu time    0.1302: real time    0.1302
  RMM-DIIS:  cpu time    0.0814: real time    0.0814
    ORTHCH:  cpu time    0.0147: real time    0.0147
       DOS:  cpu time    0.0008: real time    0.0008
    CHARGE:  cpu time    0.0136: real time    0.0136
    MIXING:  cpu time    0.0003: real time    0.0003
    --------------------------------------------
      LOOP:  cpu time    0.2483: real time    0.2551

 eigenvalue-minimisations  :  1690
 total energy-change (2. order) : 0.3090645E-02  ( 0.3387005E-02)
 number of electron      11.9999993 magnetization      -0.0300602
 augmentation part        1.3850805 magnetization      -0.0044609

 Broyden mixing:
  rms(total) = 0.27404E-01    rms(broyden)= 0.27404E-01
  rms(prec ) = 0.27431E-01
  weight for this iteration     100.00

 eigenvalues of (default mixing * dielectric matrix)
  average eigenvalue GAMMA=   1.2682
  3.2683  1.8734  1.5243  0.8191  0.8191  0.6521  0.6521  0.5371

 Free energy of the ion-electron system (eV)
  ---------------------------------------------------
  alpha Z        PSCENC =        92.39034843
  Ewald energy   TEWEN  =      -597.00973006
  -Hartree energ DENC   =        -4.45801598
  -exchange      EXHF   =         0.00000000
  -V(xc)+E(xc)   XCENC  =       -94.35236976
  PAW double counting   =      1554.64498546    -1439.57791824
  entropy T*S    EENTRO =         0.00288794
  eigenvalues    EBANDS =        53.24520887
  atomic energy  EATOM  =       409.21620559
  Solvation  Ediel_sol  =         0.00000000
  ---------------------------------------------------
  free energy    TOTEN  =       -25.89839774 eV

  energy without entropy =      -25.90128568  energy(sigma->0) =      -25.89911973


--------------------------------------------------------------------------------------------------------




----------------------------------------- Iteration    1(  14)  ---------------------------------------


    POTLOK:  cpu time    0.0029: real time    0.0029
    SETDIJ:  cpu time    0.0033: real time    0.0033
    EDDIAG:  cpu time    0.1354: real time    0.1354
  RMM-DIIS:  cpu time    0.0814: real time    0.0814
    ORTHCH:  cpu time    0.0147: real time    0.0147
       DOS:  cpu time    0.0008: real time    0.0008
    CHARGE:  cpu time    0.0137: real time    0.0137
    MIXING:  cpu time    0.0004: real time    0.0004
    --------------------------------------------
      LOOP:  cpu time    0.2536: real time    0.2605

 eigenvalue-minimisations  :  1681
 total energy-change (2. order) : 0.9008739E-04  ( 0.2345150E-03)
 number of electron      11.9999993 magnetization      -0.0255911
 augmentation part        1.3852538 magnetization      -0.0001975

 Broyden mixing:
  rms(total) = 0.19801E-01    rms(broyden)= 0.19801E-01
  rms(prec ) = 0.19898E-01
  weight for this iteration     100.00

 eigenvalues of (default mixing * dielectric matrix)
  average eigenvalue GAMMA=   1.2833
  3.2568  2.0752  1.3732  1.0294  1.0294  0.7916  0.7916  0.6077  0.5948

 Free energy of the ion-electron system (eV)
  ---------------------------------------------------
  alpha Z        PSCENC =        92.39034843
  Ewald energy   TEWEN  =      -597.00973006
  -Hartree energ DENC   =        -4.45647831
  -exchange      EXHF   =         0.00000000
  -V(xc)+E(xc)   XCENC  =       -94.35147119
  PAW double counting   =      1557.68990661    -1442.61890838
  entropy T*S    EENTRO =         0.00289155
  eigenvalues    EBANDS =        53.23892812
  atomic energy  EATOM  =       409.21620559
  Solvation  Ediel_sol  =         0.00000000
  ---------------------------------------------------
  free energy    TOTEN  =       -25.89830765 eV

  energy without entropy =      -25.90119920  energy(sigma->0) =      -25.89903054


--------------------------------------------------------------------------------------------------------




----------------------------------------- Iteration    1(  15)  ---------------------------------------


    POTLOK:  cpu time    0.0029: real time    0.0029
    SETDIJ:  cpu time    0.0034: real time    0.0034
    EDDIAG:  cpu time    0.1322: real time    0.1322
  RMM-DIIS:  cpu time    0.0805: real time    0.0805
    ORTHCH:  cpu time    0.0147: real time    0.0147
       DOS:  cpu time    0.0008: real time    0.0008
    CHARGE:  cpu time    0.0138: real time    0.0138
    MIXING:  cpu time    0.0004: real time    0.0004
    --------------------------------------------
      LOOP:  cpu time    0.2498: real time    0.2564

 eigenvalue-minimisations  :  1649
 total energy-change (2. order) : 0.5853171E-04  ( 0.6387402E-04)
 number of electron      11.9999993 magnetization      -0.0274777
 augmentation part        1.3850160 magnetization      -0.0024967

 Broyden mixing:
  rms(total) = 0.39270E-02    rms(broyden)= 0.39270E-02
  rms(prec ) = 0.40775E-02
  weight for this iteration     100.00

 eigenvalues of (default mixing * dielectric matrix)
  average eigenvalue GAMMA=   1.3269
  3.1483  2.4863  1.6014  1.6014  1.0133  0.7603  0.7603  0.6833  0.6229  0.5916

 Free energy of the ion-electron system (eV)
  ---------------------------------------------------
  alpha Z        PSCENC =        92.39034843
  Ewald energy   TEWEN  =      -597.00973006
  -Hartree energ DENC   =        -4.46683808
  -exchange      EXHF   =         0.00000000
  -V(xc)+E(xc)   XCENC  =       -94.35390598
  PAW double counting   =      1560.94756259    -1445.86594162
  entropy T*S    EENTRO =         0.00287441
  eigenvalues    EBANDS =        53.24117560
  atomic energy  EATOM  =       409.21620559
  Solvation  Ediel_sol  =         0.00000000
  ---------------------------------------------------
  free energy    TOTEN  =       -25.89824912 eV

  energy without entropy =      -25.90112353  energy(sigma->0) =      -25.89896773


--------------------------------------------------------------------------------------------------------




----------------------------------------- Iteration    1(  16)  ---------------------------------------


    POTLOK:  cpu time    0.0029: real time    0.0029
    SETDIJ:  cpu time    0.0034: real time    0.0034
    EDDIAG:  cpu time    0.1301: real time    0.1301
  RMM-DIIS:  cpu time    0.0565: real time    0.0565
    ORTHCH:  cpu time    0.0147: real time    0.0147
       DOS:  cpu time    0.0009: real time    0.0009
    CHARGE:  cpu time    0.0137: real time    0.0137
    MIXING:  cpu time    0.0006: real time    0.0008
    --------------------------------------------
      LOOP:  cpu time    0.2237: real time    0.2311

 eigenvalue-minimisations  :   986
 total energy-change (2. order) :-0.2719172E-04  (-0.1992497E-04)
 number of electron      11.9999993 magnetization      -0.0278664
 augmentation part        1.3850379 magnetization      -0.0026888

 Broyden mixing:
  rms(total) = 0.51396E-03    rms(broyden)= 0.51396E-03
  rms(prec ) = 0.62011E-03
  weight for this iteration     100.00

 eigenvalues of (default mixing * dielectric matrix)
  average eigenvalue GAMMA=   1.3001
  3.1477  2.2661  2.2661  1.1370  1.1370  0.8373  0.8373  0.7965  0.6557  0.6104
  0.6104

 Free energy of the ion-electron system (eV)
  ---------------------------------------------------
  alpha Z        PSCENC =        92.39034843
  Ewald energy   TEWEN  =      -597.00973006
  -Hartree energ DENC   =        -4.46400070
  -exchange      EXHF   =         0.00000000
  -V(xc)+E(xc)   XCENC  =       -94.35321734
  PAW double counting   =      1561.83282578    -1446.75110619
  entropy T*S    EENTRO =         0.00287542
  eigenvalues    EBANDS =        53.23752274
  atomic energy  EATOM  =       409.21620559
  Solvation  Ediel_sol  =         0.00000000
  ---------------------------------------------------
  free energy    TOTEN  =       -25.89827631 eV

  energy without entropy =      -25.90115174  energy(sigma->0) =      -25.89899517


--------------------------------------------------------------------------------------------------------




----------------------------------------- Iteration    1(  17)  ---------------------------------------


    POTLOK:  cpu time    0.0029: real time    0.0029
    SETDIJ:  cpu time    0.0034: real time    0.0034
    EDDIAG:  cpu time    0.1301: real time    0.1301
  RMM-DIIS:  cpu time    0.0548: real time    0.0548
    ORTHCH:  cpu time    0.0148: real time    0.0148
       DOS:  cpu time    0.0008: real time    0.0008
    CHARGE:  cpu time    0.0137: real time    0.0137
    MIXING:  cpu time    0.0004: real time    0.0004
    --------------------------------------------
      LOOP:  cpu time    0.2219: real time    0.2288

 eigenvalue-minimisations  :   956
 total energy-change (2. order) : 0.7198691E-05  ( 0.1671653E-04)
 number of electron      11.9999993 magnetization      -0.0272235
 augmentation part        1.3850784 magnetization      -0.0020468

 Broyden mixing:
  rms(total) = 0.54662E-03    rms(broyden)= 0.54662E-03
  rms(prec ) = 0.57913E-03
  weight for this iteration     100.00

 eigenvalues of (default mixing * dielectric matrix)
  average eigenvalue GAMMA=   1.3518
  3.2287  2.7211  2.0426  1.9756  0.9800  0.9800  0.8123  0.8123  0.8501  0.6280
  0.5951  0.5951

 Free energy of the ion-electron system (eV)
  ---------------------------------------------------
  alpha Z        PSCENC =        92.39034843
  Ewald energy   TEWEN  =      -597.00973006
  -Hartree energ DENC   =        -4.46237974
  -exchange      EXHF   =         0.00000000
  -V(xc)+E(xc)   XCENC  =       -94.35277234
  PAW double counting   =      1561.99942540    -1446.91826801
  entropy T*S    EENTRO =         0.00285802
  eigenvalues    EBANDS =        53.23604360
  atomic energy  EATOM  =       409.21620559
  Solvation  Ediel_sol  =         0.00000000
  ---------------------------------------------------
  free energy    TOTEN  =       -25.89826912 eV

  energy without entropy =      -25.90112714  energy(sigma->0) =      -25.89898362


--------------------------------------------------------------------------------------------------------




----------------------------------------- Iteration    1(  18)  ---------------------------------------


    POTLOK:  cpu time    0.0029: real time    0.0029
    SETDIJ:  cpu time    0.0033: real time    0.0033
    EDDIAG:  cpu time    0.1302: real time    0.1302
  RMM-DIIS:  cpu time    0.0534: real time    0.0534
    ORTHCH:  cpu time    0.0148: real time    0.0148
       DOS:  cpu time    0.0008: real time    0.0008
    CHARGE:  cpu time    0.0138: real time    0.0138
    MIXING:  cpu time    0.0005: real time    0.0005
    --------------------------------------------
      LOOP:  cpu time    0.2207: real time    0.2275

 eigenvalue-minimisations  :   880
 total energy-change (2. order) :-0.2781417E-06  ( 0.1150533E-03)
 number of electron      11.9999993 magnetization      -0.0272847
 augmentation part        1.3850584 magnetization      -0.0021403

 Broyden mixing:
  rms(total) = 0.20731E-03    rms(broyden)= 0.20731E-03
  rms(prec ) = 0.20976E-03
  weight for this iteration     100.00

 eigenvalues of (default mixing * dielectric matrix)
  average eigenvalue GAMMA=   1.3652
  3.4705  2.8348  2.1288  2.1288  1.0524  1.0524  0.9704  0.7493  0.7493  0.5890
  0.6243  0.6987  0.6987

 Free energy of the ion-electron system (eV)
  ---------------------------------------------------
  alpha Z        PSCENC =        92.39034843
  Ewald energy   TEWEN  =      -597.00973006
  -Hartree energ DENC   =        -4.46312587
  -exchange      EXHF   =         0.00000000
  -V(xc)+E(xc)   XCENC  =       -94.35292958
  PAW double counting   =      1561.85695131    -1446.77567413
  entropy T*S    EENTRO =         0.00287652
  eigenvalues    EBANDS =        53.23680840
  atomic energy  EATOM  =       409.21620559
  Solvation  Ediel_sol  =         0.00000000
  ---------------------------------------------------
  free energy    TOTEN  =       -25.89826939 eV

  energy without entropy =      -25.90114592  energy(sigma->0) =      -25.89898852


--------------------------------------------------------------------------------------------------------




----------------------------------------- Iteration    1(  19)  ---------------------------------------


    POTLOK:  cpu time    0.0029: real time    0.0029
    SETDIJ:  cpu time    0.0034: real time    0.0034
    EDDIAG:  cpu time    0.1298: real time    0.1298
  RMM-DIIS:  cpu time    0.0436: real time    0.0436
    ORTHCH:  cpu time    0.0150: real time    0.0150
       DOS:  cpu time    0.0008: real time    0.0008
    CHARGE:  cpu time    0.0145: real time    0.0145
    MIXING:  cpu time    0.0005: real time    0.0005
    --------------------------------------------
      LOOP:  cpu time    0.2116: real time    0.2184

 eigenvalue-minimisations  :   277
 total energy-change (2. order) : 0.2151252E-05  ( 0.4805893E-05)
 number of electron      11.9999993 magnetization      -0.0274549
 augmentation part        1.3850590 magnetization      -0.0023036

 Broyden mixing:
  rms(total) = 0.13302E-03    rms(broyden)= 0.13302E-03
  rms(prec ) = 0.13962E-03
  weight for this iteration     100.00

 eigenvalues of (default mixing * dielectric matrix)
  average eigenvalue GAMMA=   1.3506
  3.4218  2.8151  2.2109  2.2109  1.1829  1.1829  0.9754  0.7552  0.7552  0.7647
  0.7647  0.6083  0.6083  0.6525

 Free energy of the ion-electron system (eV)
  ---------------------------------------------------
  alpha Z        PSCENC =        92.39034843
  Ewald energy   TEWEN  =      -597.00973006
  -Hartree energ DENC   =        -4.46317716
  -exchange      EXHF   =         0.00000000
  -V(xc)+E(xc)   XCENC  =       -94.35293851
  PAW double counting   =      1561.84095823    -1446.75972092
  entropy T*S    EENTRO =         0.00287643
  eigenvalues    EBANDS =        53.23691073
  atomic energy  EATOM  =       409.21620559
  Solvation  Ediel_sol  =         0.00000000
  ---------------------------------------------------
  free energy    TOTEN  =       -25.89826724 eV

  energy without entropy =      -25.90114367  energy(sigma->0) =      -25.89898635


--------------------------------------------------------------------------------------------------------




----------------------------------------- Iteration    1(  20)  ---------------------------------------


    POTLOK:  cpu time    0.0029: real time    0.0029
    SETDIJ:  cpu time    0.0034: real time    0.0034
    EDDIAG:  cpu time    0.1302: real time    0.1302
  RMM-DIIS:  cpu time    0.0412: real time    0.0412
    ORTHCH:  cpu time    0.0148: real time    0.0148
       DOS:  cpu time    0.0008: real time    0.0008
    CHARGE:  cpu time    0.0136: real time    0.0136
    MIXING:  cpu time    0.0005: real time    0.0005
    --------------------------------------------
      LOOP:  cpu time    0.2084: real time    0.2153

 eigenvalue-minimisations  :   211
 total energy-change (2. order) :-0.2048289E-05  (-0.1357724E-05)
 number of electron      11.9999993 magnetization      -0.0274894
 augmentation part        1.3850599 magnetization      -0.0023250

 Broyden mixing:
  rms(total) = 0.53708E-04    rms(broyden)= 0.53708E-04
  rms(prec ) = 0.55442E-04
  weight for this iteration     100.00

 eigenvalues of (default mixing * dielectric matrix)
  average eigenvalue GAMMA=   1.3535
  3.0304  3.0304  2.2202  2.2202  1.8224  1.2073  0.9394  0.9394  0.7777  0.7777
  0.8500  0.6850  0.6229  0.5900  0.5900

 Free energy of the ion-electron system (eV)
  ---------------------------------------------------
  alpha Z        PSCENC =        92.39034843
  Ewald energy   TEWEN  =      -597.00973006
  -Hartree energ DENC   =        -4.46306242
  -exchange      EXHF   =         0.00000000
  -V(xc)+E(xc)   XCENC  =       -94.35291828
  PAW double counting   =      1561.80827941    -1446.72718630
  entropy T*S    EENTRO =         0.00287272
  eigenvalues    EBANDS =        53.23692161
  atomic energy  EATOM  =       409.21620559
  Solvation  Ediel_sol  =         0.00000000
  ---------------------------------------------------
  free energy    TOTEN  =       -25.89826929 eV

  energy without entropy =      -25.90114201  energy(sigma->0) =      -25.89898747


--------------------------------------------------------------------------------------------------------




----------------------------------------- Iteration    1(  21)  ---------------------------------------


    POTLOK:  cpu time    0.0029: real time    0.0029
    SETDIJ:  cpu time    0.0033: real time    0.0034
    EDDIAG:  cpu time    0.1304: real time    0.1304
  RMM-DIIS:  cpu time    0.0415: real time    0.0415
    ORTHCH:  cpu time    0.0148: real time    0.0148
       DOS:  cpu time    0.0009: real time    0.0009
    CHARGE:  cpu time    0.0137: real time    0.0137
    MIXING:  cpu time    0.0006: real time    0.0006
    --------------------------------------------
      LOOP:  cpu time    0.2090: real time    0.2158

 eigenvalue-minimisations  :   198
 total energy-change (2. order) :-0.1376902E-05  ( 0.5959832E-05)
 number of electron      11.9999993 magnetization      -0.0274714
 augmentation part        1.3850601 magnetization      -0.0022991

 Broyden mixing:
  rms(total) = 0.23328E-04    rms(broyden)= 0.23328E-04
  rms(prec ) = 0.23866E-04
  weight for this iteration     100.00

 eigenvalues of (default mixing * dielectric matrix)
  average eigenvalue GAMMA=   1.3120
  3.0254  3.0254  2.2449  2.2449  1.9548  1.1794  0.9331  0.9331  0.9230  0.7784
  0.7784  0.6640  0.6220  0.5725  0.5725  0.5395

 Free energy of the ion-electron system (eV)
  ---------------------------------------------------
  alpha Z        PSCENC =        92.39034843
  Ewald energy   TEWEN  =      -597.00973006
  -Hartree energ DENC   =        -4.46301125
  -exchange      EXHF   =         0.00000000
  -V(xc)+E(xc)   XCENC  =       -94.35290921
  PAW double counting   =      1561.81605532    -1446.73499037
  entropy T*S    EENTRO =         0.00287657
  eigenvalues    EBANDS =        53.23688433
  atomic energy  EATOM  =       409.21620559
  Solvation  Ediel_sol  =         0.00000000
  ---------------------------------------------------
  free energy    TOTEN  =       -25.89827067 eV

  energy without entropy =      -25.90114724  energy(sigma->0) =      -25.89898981


--------------------------------------------------------------------------------------------------------




----------------------------------------- Iteration    1(  22)  ---------------------------------------


    POTLOK:  cpu time    0.0029: real time    0.0029
    SETDIJ:  cpu time    0.0033: real time    0.0033
    EDDIAG:  cpu time    0.1302: real time    0.1302
  RMM-DIIS:  cpu time    0.0406: real time    0.0406
    ORTHCH:  cpu time    0.0147: real time    0.0147
       DOS:  cpu time    0.0008: real time    0.0008
    CHARGE:  cpu time    0.0139: real time    0.0140
    MIXING:  cpu time    0.0006: real time    0.0006
    --------------------------------------------
      LOOP:  cpu time    0.2082: real time    0.2153

 eigenvalue-minimisations  :   171
 total energy-change (2. order) :-0.1326968E-05  (-0.1063233E-05)
 number of electron      11.9999993 magnetization      -0.0274628
 augmentation part        1.3850602 magnetization      -0.0022954

 Broyden mixing:
  rms(total) = 0.20470E-04    rms(broyden)= 0.20470E-04
  rms(prec ) = 0.20498E-04
  weight for this iteration     100.00

 eigenvalues of (default mixing * dielectric matrix)
  average eigenvalue GAMMA=   1.3519
  3.2964  2.9343  2.4100  2.4100  2.0552  1.4635  0.9883  0.9657  0.9657  0.7782
  0.7782  0.8267  0.6519  0.6519  0.6169  0.6012  0.5878

 Free energy of the ion-electron system (eV)
  ---------------------------------------------------
  alpha Z        PSCENC =        92.39034843
  Ewald energy   TEWEN  =      -597.00973006
  -Hartree energ DENC   =        -4.46300799
  -exchange      EXHF   =         0.00000000
  -V(xc)+E(xc)   XCENC  =       -94.35290593
  PAW double counting   =      1561.82261371    -1446.74154826
  entropy T*S    EENTRO =         0.00287467
  eigenvalues    EBANDS =        53.23687786
  atomic energy  EATOM  =       409.21620559
  Solvation  Ediel_sol  =         0.00000000
  ---------------------------------------------------
  free energy    TOTEN  =       -25.89827199 eV

  energy without entropy =      -25.90114666  energy(sigma->0) =      -25.89899066


--------------------------------------------------------------------------------------------------------




----------------------------------------- Iteration    1(  23)  ---------------------------------------


    POTLOK:  cpu time    0.0029: real time    0.0029
    SETDIJ:  cpu time    0.0034: real time    0.0034
    EDDIAG:  cpu time    0.1302: real time    0.1302
  RMM-DIIS:  cpu time    0.0406: real time    0.0406
    ORTHCH:  cpu time    0.0148: real time    0.0148
       DOS:  cpu time    0.0008: real time    0.0008
    CHARGE:  cpu time    0.0139: real time    0.0139
    MIXING:  cpu time    0.0006: real time    0.0006
[...]
      6       5.8780      1.00000
      7       9.1191      0.00000
      8       9.2591      0.00000
      9      11.0004      0.00000
     10      11.1587      0.00000
     11      12.8968      0.00000
     12      14.3462      0.00000

 k-point    23 :       0.3500    0.3500    0.1500
  band No.  band energies     occupation 
      1       2.0583      1.00000
      2       2.8629      1.00000
      3       4.5802      1.00000
      4       4.9004      1.00000
      5       5.8712      1.00000
      6       5.8874      1.00000
      7       9.2175      0.00000
      8      10.0300      0.00000
      9      10.6914      0.00000
     10      11.8497      0.00000
     11      12.8616      0.00000
     12      16.0416      0.00000

 k-point    24 :       0.4500    0.3500    0.1500
  band No.  band energies     occupation 
      1       2.2331      1.00000
      2       2.4739      1.00000
      3       4.4848      1.00000
      4       4.6192      1.00000
      5       6.4970      1.00000
      6       6.5476      1.00000
      7       9.6028      0.00000
      8       9.9626      0.00000
      9      10.9773      0.00000
     10      11.4167      0.00000
     11      13.9984      0.00000
     12      15.1066      0.00000

 k-point    25 :       0.4500    0.4500    0.1500
  band No.  band energies     occupation 
      1       2.1335      1.00000
      2       2.2033      1.00000
      3       4.2842      1.00000
      4       4.3437      1.00000
      5       7.4155      0.99826
      6       7.4410      0.99745
      7      10.0237      0.00000
      8      10.2236      0.00000
      9      10.9756      0.00000
     10      11.2229      0.00000
     11      14.7976      0.00000
     12      15.2093      0.00000

 k-point    26 :       0.2500    0.2500    0.2500
  band No.  band energies     occupation 
      1       1.7836      1.00000
      2       4.3672      1.00000
      3       4.3672      1.00000
      4       4.5215      1.00000
      5       4.9201      1.00000
      6       4.9201      1.00000
      7      10.1791      0.00000
      8      10.1791      0.00000
      9      10.7278      0.00000
     10      10.7278      0.00000
     11      11.7046      0.00000
     12      16.8858      0.00000

 k-point    27 :       0.3500    0.2500    0.2500
  band No.  band energies     occupation 
      1       2.4583      1.00000
      2       3.7096      1.00000
      3       4.4856      1.00000
      4       4.7375      1.00000
      5       4.8964      1.00000
      6       5.2980      1.00000
      7       9.9693      0.00000
      8      10.0082      0.00000
      9      10.6953      0.00000
     10      11.0055      0.00000
     11      12.9514      0.00000
     12      16.8973      0.00000

 k-point    28 :       0.4500    0.2500    0.2500
  band No.  band energies     occupation 
      1       2.8498      1.00000
      2       3.1850      1.00000
      3       4.5645      1.00000
      4       4.6285      1.00000
      5       5.3933      1.00000
      6       5.7302      1.00000
      7       9.7133      0.00000
      8       9.7569      0.00000
      9      10.9553      0.00000
     10      10.9667      0.00000
     11      14.2122      0.00000
     12      15.6516      0.00000

 k-point    29 :       0.3500    0.3500    0.2500
  band No.  band energies     occupation 
      1       2.9529      1.00000
      2       3.3590      1.00000
      3       4.4779      1.00000
      4       4.7363      1.00000
      5       5.0770      1.00000
      6       5.6007      1.00000
      7      10.0926      0.00000
      8      10.3411      0.00000
      9      10.7416      0.00000
     10      11.1037      0.00000
     11      14.2517      0.00000
     12      16.7033      0.00000

 k-point    30 :       0.4500    0.3500    0.2500
  band No.  band energies     occupation 
      1       3.0328      1.00000
      2       3.0999      1.00000
      3       4.4427      1.00000
      4       4.5779      1.00000
      5       5.7381      1.00000
      6       6.0404      1.00000
      7      10.1583      0.00000
      8      10.2941      0.00000
      9      10.9705      0.00000
     10      11.0682      0.00000
     11      15.4026      0.00000
     12      16.5339      0.00000

 k-point    31 :       0.4500    0.4500    0.2500
  band No.  band energies     occupation 
      1       2.9968      1.00000
      2       3.0037      1.00000
      3       4.2694      1.00000
      4       4.3504      1.00000
      5       6.4906      1.00000
      6       6.6284      1.00000
      7      10.4267      0.00000
      8      10.5193      0.00000
      9      11.0293      0.00000
     10      11.1003      0.00000
     11      16.2084      0.00000
     12      16.8157      0.00000

 k-point    32 :       0.3500    0.3500    0.3500
  band No.  band energies     occupation 
      1       3.4701      1.00000
      2       3.9801      1.00000
      3       4.4581      1.00000
      4       4.4581      1.00000
      5       5.2290      1.00000
      6       5.2290      1.00000
      7      10.7405      0.00000
      8      10.7405      0.00000
      9      10.7410      0.00000
     10      10.7410      0.00000
     11      15.6115      0.00000
     12      16.0059      0.00000

 k-point    33 :       0.4500    0.3500    0.3500
  band No.  band energies     occupation 
      1       3.5185      1.00000
      2       3.7703      1.00000
      3       4.5818      1.00000
      4       4.8559      1.00000
      5       5.1894      1.00000
      6       5.6089      1.00000
      7      10.6511      0.00000
      8      10.6896      0.00000
      9      10.9956      0.00000
     10      10.9995      0.00000
     11      16.1238      0.00000
     12      16.6291      0.00000

 k-point    34 :       0.4500    0.4500    0.3500
  band No.  band energies     occupation 
      1       3.7754      1.00000
      2       4.0386      1.00000
      3       4.3645      1.00000
      4       4.6375      1.00000
      5       5.6258      1.00000
      6       5.8051      1.00000
      7      10.8447      0.00000
      8      10.8709      0.00000
      9      11.0775      0.00000
     10      11.0824      0.00000
     11      15.6376      0.00000
     12      16.0109      0.00000

 k-point    35 :       0.4500    0.4500    0.4500
  band No.  band energies     occupation 
      1       4.2573      1.00000
      2       4.6373      1.00000
      3       4.6373      1.00000
      4       5.1205      1.00000
      5       5.1205      1.00000
      6       5.1429      1.00000
      7      11.0976      0.00000
      8      11.0976      0.00000
      9      11.1017      0.00000
     10      11.1017      0.00000
     11      14.9274      0.00000
     12      15.0774      0.00000


--------------------------------------------------------------------------------------------------------


 soft charge-density along one line, spin component           1
         0         1         2         3         4         5         6         7         8         9
 total charge-density along one line
 
 soft charge-density along one line, spin component           2
         0         1         2         3         4         5         6         7         8         9
 total charge-density along one line
 
 pseudopotential strength for first ion, spin component:           1
 -6.881  -0.000  -0.000  -0.000  -0.000  -7.844  -0.000  -0.000
 -0.000  -6.881  -0.000   0.000   0.000  -0.000  -7.844  -0.000
 -0.000  -0.000  -6.905  -0.000  -0.000  -0.000  -0.000  -7.872
 -0.000   0.000  -0.000  -6.881  -0.000  -0.000   0.000  -0.000
 -0.000   0.000  -0.000  -0.000  -6.905  -0.000   0.000  -0.000
 -7.844  -0.000  -0.000  -0.000  -0.000  -8.923  -0.000  -0.000
 -0.000  -7.844  -0.000   0.000   0.000  -0.000  -8.923  -0.000
 -0.000  -0.000  -7.872  -0.000  -0.000  -0.000  -0.000  -8.956
 -0.000   0.000  -0.000  -7.844  -0.000  -0.000   0.000  -0.000
 -0.000   0.000  -0.000  -0.000  -7.872  -0.000   0.000  -0.000
 -0.000   0.000  -0.000   0.000  -0.000  -0.000   0.000  -0.000
 -0.000   0.000  -0.000   0.000  -0.000  -0.000   0.000  -0.000
 -0.000  -0.000   0.000  -0.000   0.000  -0.000  -0.000   0.000
 -0.000  -0.000  -0.000   0.000  -0.000  -0.000  -0.000  -0.000
 -0.000  -0.000   0.000  -0.000  -0.000  -0.000  -0.000   0.000
 -0.000  -0.000   0.000  -0.000   0.000  -0.000  -0.000   0.000
 -0.000  -0.000  -0.000  -0.000  -0.000  -0.000  -0.000  -0.000
 -0.000  -0.000   0.000  -0.000  -0.000  -0.000  -0.000  -0.000
 pseudopotential strength for first ion, spin component:           2
 -6.881  -0.000  -0.000  -0.000  -0.000  -7.844  -0.000  -0.000
 -0.000  -6.881   0.000   0.000   0.000  -0.000  -7.844   0.000
 -0.000   0.000  -6.905  -0.000  -0.000  -0.000   0.000  -7.873
 -0.000   0.000  -0.000  -6.881  -0.000  -0.000   0.000  -0.000
 -0.000   0.000  -0.000  -0.000  -6.905  -0.000   0.000  -0.000
 -7.844  -0.000  -0.000  -0.000  -0.000  -8.923  -0.000  -0.000
 -0.000  -7.844   0.000   0.000   0.000  -0.000  -8.923   0.000
 -0.000   0.000  -7.873  -0.000  -0.000  -0.000   0.000  -8.956
 -0.000   0.000  -0.000  -7.844  -0.000  -0.000   0.000  -0.000
 -0.000   0.000  -0.000  -0.000  -7.873  -0.000   0.000  -0.000
 -0.000   0.000  -0.000   0.000  -0.000  -0.000   0.000  -0.000
 -0.000   0.000  -0.000   0.000  -0.000  -0.000   0.000  -0.000
  0.000  -0.000   0.000  -0.000   0.000   0.000  -0.000   0.000
 -0.000  -0.000  -0.000   0.000  -0.000  -0.000  -0.000  -0.000
 -0.000  -0.000  -0.000  -0.000  -0.000  -0.000  -0.000  -0.000
  0.000  -0.000   0.000  -0.000   0.000  -0.000  -0.000   0.000
 -0.000  -0.000  -0.000  -0.000  -0.000  -0.000  -0.000  -0.000
 -0.000  -0.000  -0.000  -0.000  -0.000  -0.000  -0.000  -0.000
 total augmentation occupancy for first ion, spin component:           1
  7.990   0.000  -0.000  -0.000   0.000  -4.528  -0.000  -0.000  -0.000   0.000  -0.000  -0.000  -0.000   0.000  -0.000   0.000
  0.000   7.990   0.000  -0.000   0.000  -0.000  -4.528  -0.000   0.000  -0.000  -0.000  -0.000   0.000   0.000   0.000   0.000
 -0.000   0.000   7.119   0.000   0.000   0.000  -0.000  -4.359  -0.000  -0.000   0.000   0.000  -0.000   0.000   0.000   0.000
 -0.000  -0.000   0.000   7.990  -0.000   0.000   0.000   0.000  -4.528   0.000   0.000   0.000   0.000   0.000   0.000  -0.000
  0.000  -0.000  -0.000   0.000   7.119   0.000   0.000   0.000  -0.000  -4.359  -0.000   0.000   0.000   0.000   0.000  -0.000
 -4.528  -0.000   0.000  -0.000   0.000   2.634  -0.000  -0.000  -0.000  -0.000   0.000   0.000   0.000   0.000   0.000   0.000
  0.000  -4.528   0.000  -0.000  -0.000   0.000   2.634   0.000  -0.000  -0.000  -0.000  -0.000   0.000   0.000  -0.000   0.000
  0.000   0.000  -4.359  -0.000  -0.000  -0.000  -0.000   2.700  -0.000   0.000  -0.000  -0.000   0.000   0.000   0.000  -0.000
 -0.000   0.000   0.000  -4.528   0.000   0.000  -0.000   0.000   2.634  -0.000  -0.000  -0.000   0.000   0.000   0.000   0.000
 -0.000   0.000  -0.000  -0.000  -4.359  -0.000  -0.000   0.000  -0.000   2.700  -0.000   0.000  -0.000  -0.000   0.000   0.000
 -0.000   0.000   0.000  -0.000  -0.000  -0.000   0.000  -0.000   0.000  -0.000   2.450  -0.317   0.000   0.000   0.000   0.000
 -0.000  -0.000   0.000   0.000  -0.000   0.000  -0.000  -0.000  -0.000   0.000  -0.317   0.046  -0.000   0.000   0.000   0.000
 -0.000   0.000  -0.000   0.000  -0.000   0.000   0.000  -0.000   0.000   0.000  -0.000  -0.000   0.357  -0.000  -0.000  -0.021
  0.000   0.000   0.000   0.000   0.000   0.000   0.000   0.000   0.000  -0.000  -0.000   0.000  -0.000   0.357   0.000   0.000
 -0.000   0.000  -0.000   0.000   0.000   0.000   0.000   0.000   0.000  -0.000  -0.000   0.000   0.000  -0.000   0.357   0.000
  0.000   0.000   0.000  -0.000   0.000   0.000   0.000   0.000   0.000   0.000   0.000   0.000  -0.021   0.000   0.000   0.001
  0.000   0.000   0.000   0.000  -0.000   0.000   0.000   0.000   0.000  -0.000   0.000   0.000   0.000  -0.021   0.000   0.000
  0.000  -0.000  -0.000   0.000  -0.000   0.000   0.000  -0.000   0.000  -0.000   0.000  -0.000   0.000   0.000  -0.021  -0.000
 total augmentation occupancy for first ion, spin component:           2
 -0.004  -0.000   0.000  -0.000  -0.000   0.003  -0.000   0.000  -0.000  -0.000  -0.000   0.000   0.000   0.000   0.000   0.000
 -0.000  -0.004   0.000   0.000   0.000  -0.000   0.003   0.000   0.000  -0.000   0.000  -0.000   0.000   0.000   0.000   0.000
  0.000   0.000  -0.004  -0.000   0.000  -0.000  -0.000   0.003  -0.000   0.000  -0.000   0.000  -0.000  -0.000  -0.000   0.000
 -0.000   0.000  -0.000  -0.004  -0.000  -0.000   0.000  -0.000   0.003   0.000  -0.000   0.000   0.000   0.000   0.000   0.000
  0.000   0.000   0.000  -0.000  -0.004  -0.000  -0.000   0.000   0.000   0.003  -0.000   0.000   0.000  -0.000  -0.000  -0.000
  0.003  -0.000  -0.000  -0.000   0.000  -0.002   0.000  -0.000   0.000   0.000   0.000   0.000   0.000   0.000   0.000   0.000
 -0.000   0.003  -0.000   0.000  -0.000   0.000  -0.002   0.000   0.000   0.000  -0.000   0.000  -0.000   0.000  -0.000  -0.000
 -0.000  -0.000   0.003  -0.000   0.000  -0.000   0.000  -0.002  -0.000  -0.000   0.000   0.000   0.000  -0.000   0.000   0.000
 -0.000   0.000  -0.000   0.003   0.000   0.000   0.000  -0.000  -0.002  -0.000  -0.000  -0.000   0.000   0.000   0.000   0.000
 -0.000  -0.000   0.000   0.000   0.003   0.000  -0.000   0.000   0.000  -0.002   0.000  -0.000  -0.000  -0.000   0.000  -0.000
 -0.000   0.000   0.000  -0.000  -0.000   0.000  -0.000   0.000  -0.000   0.000  -0.001   0.000  -0.000  -0.000  -0.000   0.000
  0.000  -0.000   0.000   0.000   0.000   0.000   0.000   0.000  -0.000  -0.000   0.000  -0.000   0.000   0.000   0.000   0.000
  0.000   0.000   0.000   0.000   0.000   0.000  -0.000  -0.000   0.000  -0.000  -0.000  -0.000  -0.000  -0.000  -0.000   0.000
  0.000   0.000   0.000   0.000   0.000   0.000   0.000  -0.000   0.000  -0.000   0.000   0.000  -0.000  -0.000  -0.000   0.000
  0.000   0.000  -0.000   0.000   0.000   0.000   0.000  -0.000   0.000  -0.000   0.000   0.000  -0.000  -0.000  -0.000  -0.000
  0.000   0.000  -0.000   0.000  -0.000   0.000  -0.000  -0.000   0.000   0.000   0.000   0.000   0.000   0.000  -0.000  -0.000
  0.000   0.000   0.000   0.000  -0.000   0.000  -0.000   0.000   0.000  -0.000   0.000   0.000   0.000   0.000  -0.000  -0.000
  0.000   0.000   0.000   0.000  -0.000   0.000  -0.000   0.000  -0.000   0.000   0.000  -0.000  -0.000  -0.000   0.000   0.000


------------------------ aborting loop because EDIFF is reached ----------------------------------------


    CHARGE:  cpu time    0.0136: real time    0.0136
    FORLOC:  cpu time    0.0005: real time    0.0005
    FORNL :  cpu time    0.0453: real time    0.0455
    STRESS:  cpu time    0.1359: real time    0.1361
    FORCOR:  cpu time    0.0043: real time    0.0044
    FORHAR:  cpu time    0.0015: real time    0.0020
    MIXING:  cpu time    0.0018: real time    0.0018
    OFIELD:  cpu time    0.0006: real time    0.0014

  FORCE on cell =-STRESS in cart. coord.  units (eV):
  Direction    XX          YY          ZZ          XY          YZ          ZX
  --------------------------------------------------------------------------------------
  Alpha Z    92.39035    92.39035    92.39035
  Ewald    -199.00323  -199.00323  -199.00323    -0.00000    -0.00000    -0.00000
  Hartree     1.48430     1.48430     1.48430    -0.00000    -0.00000    -0.00000
  E(xc)     -54.10499   -54.10499   -54.10499     0.00000    -0.00000    -0.00000
  Local      18.08731    18.08731    18.08731     0.00000    -0.00000     0.00000
  n-local   -26.71674   -22.23466   -20.55989     3.52338    -1.04082     1.00715
  augment    10.54801    10.54801    10.54801    -0.00000    -0.00000    -0.00000
  Kinetic   144.09602   152.68279   166.38542     7.80740    -2.36821     1.80211
  Fock        0.00000     0.00000     0.00000     0.00000     0.00000     0.00000
  -------------------------------------------------------------------------------------
  Total       0.61941     0.61941     0.61941     0.00000    -0.00000     0.00000
  in kB      31.45035    31.45035    31.45035     0.00000    -0.00000     0.00000
  external pressure =       31.45 kB  Pullay stress =        0.00 kB


 VOLUME and BASIS-vectors are now :
 -----------------------------------------------------------------------------
  energy-cutoff  :      450.00
  volume of cell :       31.55
      direct lattice vectors                 reciprocal lattice vectors
     3.160000000  0.000000000  0.000000000     0.316455696  0.000000000  0.000000000
     0.000000000  3.160000000  0.000000000     0.000000000  0.316455696  0.000000000
     0.000000000  0.000000000  3.160000000     0.000000000  0.000000000  0.316455696

  length of vectors
     3.160000000  3.160000000  3.160000000     0.316455696  0.316455696  0.316455696


 FORCES acting on ions
    electron-ion (+dipol)            ewald-force                    non-local-force                 convergence-correction
 -----------------------------------------------------------------------------------------------
   -.792E-15 -.393E-14 0.181E-15   -.273E-14 -.139E-14 -.893E-15   0.662E-23 -.165E-23 0.000E+00   0.284E-14 -.984E-14 0.186E-14
   0.567E-14 0.662E-13 0.327E-14   0.352E-14 0.607E-15 0.752E-15   0.662E-23 -.165E-23 0.000E+00   -.441E-14 0.110E-13 -.122E-14
 -----------------------------------------------------------------------------------------------
   0.487E-14 0.623E-13 0.346E-14   0.796E-15 -.788E-15 -.141E-15   0.132E-22 -.331E-23 0.000E+00   -.157E-14 0.113E-14 0.641E-15
 
 
 POSITION                                       TOTAL-FORCE (eV/Angst)
 -----------------------------------------------------------------------------------
      0.00000      0.00000      0.00000        -0.000000     -0.000000     -0.000000
      1.58000      1.58000      1.58000         0.000000      0.000000      0.000000
 -----------------------------------------------------------------------------------
    total drift:                                0.000000      0.000000      0.000000


--------------------------------------------------------------------------------------------------------



  FREE ENERGIE OF THE ION-ELECTRON SYSTEM (eV)
  ---------------------------------------------------
  free  energy   TOTEN  =       -26.03210151 eV

  energy  without entropy=      -26.03438080  energy(sigma->0) =      -26.03267133
 


--------------------------------------------------------------------------------------------------------


    POTLOK:  cpu time    0.0071: real time    0.0073


--------------------------------------------------------------------------------------------------------




--------------------------------------------------------------------------------------------------------


  
 reached required accuracy - stopping structural energy minimisation
     LOOP+:  cpu time   10.6044: real time   10.9438
    4ORBIT:  cpu time    0.0000: real time    0.0000

 total amount of memory used by VASP on root node    30488. kBytes
========================================================================

   base      :      30000. kBytes
   nonlr-proj:        125. kBytes
   fftplans  :         60. kBytes
   grid      :         98. kBytes
   one-center:         31. kBytes
   wavefun   :        174. kBytes
 
  
  
 General timing and accounting informations for this job:
 ========================================================
  
                  Total CPU time used (sec):       11.478
                            User time (sec):       10.636
                          System time (sec):        0.843
                         Elapsed time (sec):       11.841
  
                   Maximum memory used (kb):       81556.
                   Average memory used (kb):           0.
  
                          Minor page faults:        40414
                          Major page faults:            0
                 Voluntary context switches:         2310
