 vasp.5.4.4.18Apr17-6-g9f103f2a35 (build Jan 21 2021 13:12:21) complex          
  
 executed on             LinuxIFC date 2022.01.08  23:31:33
 running on   60 total cores
 distrk:  each k-point on   60 cores,    1 groups
 distr:  one band on NCORES_PER_BAND=  15 cores,    4 groups


--------------------------------------------------------------------------------------------------------


 INCAR:
 POTCAR:   PAW_PBE Ni 06Sep2000                   
 POTCAR:    PAW_PBE Nb_sv 25May2007               
 POTCAR:    PAW_PBE W 08Apr2002                   
 POTCAR:   PAW_PBE Ni 06Sep2000                   
   VRHFIN =Ni:                                                                  
   LEXCH  = PE                                                                  
   EATOM  =  1077.9025 eV,   79.2236 Ry                                         
                                                                                
   TITEL  = PAW_PBE Ni 06Sep2000                                                
   LULTRA =        F    use ultrasoft PP ?                                      
   IUNSCR =        1    unscreen: 0-lin 1-nonlin 2-no                           
   RPACOR =    2.000    partial core radius                                     
   POMASS =   58.690; ZVAL   =   10.000    mass and valenz                      
   RCORE  =    2.300    outmost cutoff radius                                   
   RWIGS  =    2.430; RWIGS  =    1.286    wigner-seitz radius (au A)           
   ENMAX  =  269.533; ENMIN  =  202.150 eV                                      
   RCLOC  =    1.681    cutoff for local pot                                    
   LCOR   =        T    correct aug charges                                     
   LPAW   =        T    paw PP                                                  
   EAUG   =  544.565                                                            
   DEXC   =    -.009                                                            
   RMAX   =    2.808    core radius for proj-oper                               
   RAUG   =    1.300    factor for augmentation sphere                          
   RDEP   =    2.390    radius for radial grids                                 
   QCUT   =   -4.451; QGAM   =    8.902    optimization parameters              
                                                                                
   Description                                                                  
     l     E      TYP  RCUT    TYP  RCUT                                        
     2   .000     23  2.300                                                     
     2   .000     23  2.300                                                     
     0   .000     23  2.300                                                     
     0   .000     23  2.300                                                     
     1  -.200     23  2.300                                                     
     1   .000     23  2.300                                                     
     3   .000      7   .000                                                     
  local pseudopotential read in
  partial core-charges read in
  atomic valenz-charges read in
  non local Contribution for L=           2  read in
    real space projection operators read in
  non local Contribution for L=           2  read in
    real space projection operators read in
  non local Contribution for L=           0  read in
    real space projection operators read in
  non local Contribution for L=           0  read in
    real space projection operators read in
  non local Contribution for L=           1  read in
    real space projection operators read in
  non local Contribution for L=           1  read in
    real space projection operators read in
    PAW grid and wavefunctions read in
 
   number of l-projection  operators is LMAX  =           6
   number of lm-projection operators is LMMAX =          18
 
 POTCAR:    PAW_PBE Nb_sv 25May2007               
   VRHFIN =Nb: 4p5s4d                                                           
   LEXCH  = PE                                                                  
   EATOM  =  1555.1913 eV,  114.3033 Ry                                         
                                                                                
   TITEL  = PAW_PBE Nb_sv 25May2007                                             
   LULTRA =        F    use ultrasoft PP ?                                      
   IUNSCR =        1    unscreen: 0-lin 1-nonlin 2-no                           
   RPACOR =    1.800    partial core radius                                     
   POMASS =   92.910; ZVAL   =   13.000    mass and valenz                      
   RCORE  =    2.400    outmost cutoff radius                                   
   RWIGS  =    2.400; RWIGS  =    1.270    wigner-seitz radius (au A)           
   ENMAX  =  293.235; ENMIN  =  219.927 eV                                      
   ICORE  =        3    local potential                                         
   LCOR   =        T    correct aug charges                                     
   LPAW   =        T    paw PP                                                  
   EAUG   =  455.659                                                            
   DEXC   =    0.000                                                            
   RMAX   =    2.456    core radius for proj-oper                               
   RAUG   =    1.300    factor for augmentation sphere                          
   RDEP   =    2.451    radius for radial grids                                 
   RDEPT  =    1.956    core radius for aug-charge                              
                                                                                
   Atomic configuration                                                         
   11 entries                                                                   
     n  l   j            E        occ.                                          
     1  0  0.50    -18805.2457   2.0000                                         
     2  0  0.50     -2630.2869   2.0000                                         
     2  1  1.50     -2348.4046   6.0000                                         
     3  0  0.50      -438.8757   2.0000                                         
     3  1  1.50      -346.7588   6.0000                                         
     3  2  2.50      -196.2560  10.0000                                         
     4  0  0.50       -58.3859   2.0000                                         
     5  0  0.50        -3.9816   1.0000                                         
     4  1  1.50       -34.5141   6.0000                                         
     4  2  2.50        -3.0408   4.0000                                         
     4  3  2.50        -1.3606   0.0000                                         
   Description                                                                  
     l       E           TYP  RCUT    TYP  RCUT                                 
     0    -58.3859094     23  2.200                                             
     0     -3.9816262     23  2.200                                             
     1    -34.5140738     23  2.200                                             
     1     13.6058260     23  2.200                                             
     2     -3.0408010     23  2.200                                             
     2     -0.1283038     23  2.200                                             
     3     -1.3605826     23  2.400                                             
  local pseudopotential read in
  partial core-charges read in
  partial kinetic energy density read in
  atomic valenz-charges read in
  non local Contribution for L=           0  read in
    real space projection operators read in
  non local Contribution for L=           0  read in
    real space projection operators read in
  non local Contribution for L=           1  read in
    real space projection operators read in
  non local Contribution for L=           1  read in
    real space projection operators read in
  non local Contribution for L=           2  read in
    real space projection operators read in
  non local Contribution for L=           2  read in
    real space projection operators read in
    PAW grid and wavefunctions read in
 
   number of l-projection  operators is LMAX  =           6
   number of lm-projection operators is LMMAX =          18
 
 POTCAR:    PAW_PBE W 08Apr2002                   
   VRHFIN =W : 6s5d                                                             
   LEXCH  = PE                                                                  
   EATOM  =   204.6103 eV,   15.0384 Ry                                         
                                                                                
   TITEL  = PAW_PBE W 08Apr2002                                                 
   LULTRA =        F    use ultrasoft PP ?                                      
   IUNSCR =        1    unscreen: 0-lin 1-nonlin 2-no                           
   RPACOR =    2.330    partial core radius                                     
   POMASS =  183.850; ZVAL   =    6.000    mass and valenz                      
   RCORE  =    2.750    outmost cutoff radius                                   
   RWIGS  =    2.750; RWIGS  =    1.455    wigner-seitz radius (au A)           
   ENMAX  =  223.057; ENMIN  =  167.293 eV                                      
   RCLOC  =    2.147    cutoff for local pot                                    
   LCOR   =        T    correct aug charges                                     
   LPAW   =        T    paw PP                                                  
   EAUG   =  373.438                                                            
   DEXC   =    0.000                                                            
   RMAX   =    2.801    core radius for proj-oper                               
   RAUG   =    1.300    factor for augmentation sphere                          
   RDEP   =    2.886    radius for radial grids                                 
   RDEPT  =    2.230    core radius for aug-charge                              
                                                                                
   Atomic configuration                                                         
   16 entries                                                                   
     n  l   j            E        occ.                                          
     1  0  0.50    -69465.5836   2.0000                                         
     2  0  0.50    -11986.2642   2.0000                                         
     2  1  1.50    -10479.8616   6.0000                                         
     3  0  0.50     -2759.0758   2.0000                                         
     3  1  1.50     -2313.1857   6.0000                                         
     3  2  2.50     -1801.1185  10.0000                                         
     4  0  0.50      -567.6791   2.0000                                         
     4  1  1.50      -421.4694   6.0000                                         
     4  2  2.50      -236.3473  10.0000                                         
     4  3  3.50       -31.2666  14.0000                                         
     5  0  0.50       -77.1085   2.0000                                         
     5  1  1.50       -41.3856   6.0000                                         
     5  2  2.50        -3.3185   5.0000                                         
     6  0  0.50        -5.1438   1.0000                                         
     6  1  0.50        -3.8096   0.0000                                         
     5  3  2.50        -1.3606   0.0000                                         
   Description                                                                  
     l       E           TYP  RCUT    TYP  RCUT                                 
     2     -3.3185288     23  2.500                                             
     2     -1.5965414     23  2.500                                             
     0     -5.1438054     23  2.500                                             
     0      4.9117504     23  2.500                                             
     1      2.7211652     23  2.750                                             
     1     27.2116520     23  2.750                                             
  local pseudopotential read in
  partial core-charges read in
  partial kinetic energy density read in
  atomic valenz-charges read in
  non local Contribution for L=           2  read in
    real space projection operators read in
  non local Contribution for L=           2  read in
    real space projection operators read in
  non local Contribution for L=           0  read in
    real space projection operators read in
  non local Contribution for L=           0  read in
    real space projection operators read in
  non local Contribution for L=           1  read in
    real space projection operators read in
  non local Contribution for L=           1  read in
    real space projection operators read in
    PAW grid and wavefunctions read in
 
   number of l-projection  operators is LMAX  =           6
   number of lm-projection operators is LMMAX =          18
 
 Optimization of the real space projectors (new method)

 maximal supplied QI-value         = 16.25
 optimisation between [QCUT,QGAM] = [ 12.51, 25.03] = [ 43.85,175.40] Ry 
 Optimized for a Real-space Cutoff    1.31 Angstroem

   l    n(q)    QCUT    max X(q) W(low)/X(q) W(high)/X(q)  e(spline) 
   2      9    12.514     4.811    0.56E-04    0.27E-04    0.54E-07
   2      9    12.514    15.146    0.50E-03    0.83E-03    0.65E-06
   0     10    12.514    14.357    0.12E-04    0.16E-04    0.90E-08
   0     10    12.514    43.282    0.85E-04    0.27E-03    0.25E-06
   1      9    12.514     5.514    0.64E-04    0.11E-04    0.56E-07
   1      9    12.514     7.697    0.40E-03    0.73E-04    0.27E-06
 Optimization of the real space projectors (new method)

 maximal supplied QI-value         = 15.68
 optimisation between [QCUT,QGAM] = [ 12.55, 25.10] = [ 44.09,176.36] Ry 
 Optimized for a Real-space Cutoff    1.56 Angstroem

   l    n(q)    QCUT    max X(q) W(low)/X(q) W(high)/X(q)  e(spline) 
   0     12    12.548    10.201    0.21E-04    0.36E-05    0.83E-07
   0     12    12.548     8.174    0.31E-04    0.62E-05    0.15E-06
   1     11    12.548     3.488    0.79E-05    0.23E-04    0.21E-06
   1     11    12.548     4.917    0.56E-04    0.13E-03    0.11E-05
   2     11    12.548   153.744    0.25E-03    0.10E-03    0.15E-05
   2     11    12.548   126.342    0.25E-03    0.10E-03    0.15E-05
 Optimization of the real space projectors (new method)

 maximal supplied QI-value         = 13.61
 optimisation between [QCUT,QGAM] = [ 12.52, 25.04] = [ 43.88,175.51] Ry 
 Optimized for a Real-space Cutoff    1.56 Angstroem

   l    n(q)    QCUT    max X(q) W(low)/X(q) W(high)/X(q)  e(spline) 
   2     11    12.518   130.855    0.35E-03    0.25E-03    0.12E-05
   2     11    12.518   114.007    0.35E-03    0.25E-03    0.12E-05
   0     12    12.518    84.709    0.29E-04    0.97E-05    0.60E-06
   0     12    12.518    49.163    0.27E-04    0.89E-05    0.55E-06
   1     11    12.518    15.765    0.74E-04    0.89E-04    0.15E-06
   1     11    12.518    10.638    0.55E-04    0.69E-04    0.13E-06
 PAW_PBE Ni 06Sep2000                   :
 energy of atom  1       EATOM=-1077.9025
 kinetic energy error for atom=    0.0019 (will be added to EATOM!!)
  PAW_PBE Nb_sv 25May2007               :
 energy of atom  2       EATOM=-1555.1913
 kinetic energy error for atom=    0.0037 (will be added to EATOM!!)
  PAW_PBE W 08Apr2002                   :
 energy of atom  3       EATOM= -204.6103
 kinetic energy error for atom=    0.0005 (will be added to EATOM!!)
 
 
 POSCAR: Ni Nb  W                                
  positions in direct lattice
  velocities in cartesian coordinates
 exchange correlation table for  LEXCH =        8
   RHO(1)=    0.500       N(1)  =     2000
   RHO(2)=  100.500       N(2)  =     4000
 


--------------------------------------------------------------------------------------------------------


 ion  position               nearest neighbor table
   1  0.016  0.478  0.238-   6 2.46  44 2.49  35 2.50  68 2.51  31 2.51  10 2.52  60 2.53  16 2.53

   2  0.189  0.972  0.247-  64 2.54   3 2.57  66 2.59  24 2.59  13 2.61  65 2.61  14 2.65  58 2.66
                            56 2.69
   3  0.017  0.027  0.175-   4 2.54   5 2.55  62 2.55  56 2.56  64 2.56   2 2.57  14 2.58  71 2.58
                            49 2.59  38 2.60  21 2.61  13 2.61
   4  0.176  0.196  0.173-  10 2.49  61 2.52   3 2.54  71 2.54  13 2.56  58 2.58  49 2.58  31 2.58
                            42 2.59   7 2.63  56 2.66   8 2.69
   5  0.180  0.976  0.102-  71 2.48  30 2.48  50 2.51  42 2.52  29 2.52  18 2.53  13 2.54  47 2.55
                             3 2.55  64 2.56  21 2.57  48 2.62
   6  0.863  0.315  0.239-  10 2.43   1 2.46  54 2.46  31 2.48  51 2.49  49 2.49  56 2.51  16 2.58
                            39 2.74
   7  0.182  0.309  0.097-  22 2.49  69 2.50  10 2.51  37 2.52  45 2.53  28 2.56  20 2.56  42 2.58
                            61 2.58  71 2.61  12 2.62   4 2.63
   8  0.521  0.197  0.172-  61 2.45  51 2.50  49 2.51  39 2.52  38 2.53  13 2.54  12 2.54  58 2.55
                            34 2.58  42 2.59   4 2.69  54 2.85
   9  0.692  0.704  0.025-  32 2.46  43 2.52  63 2.52  15 2.53  19 2.54  41 2.55  57 2.56  59 2.59
                            36 2.67
  10  0.020  0.361  0.169-   6 2.43   4 2.49   7 2.51   1 2.52  28 2.54  22 2.55  68 2.56  35 2.56
                            49 2.57  31 2.58  51 2.59  61 2.61
  11  0.682  0.802  0.245-  66 2.45  23 2.46  44 2.50  62 2.52  14 2.52  24 2.55  17 2.60  33 2.61
                            65 2.61
  12  0.518  0.300  0.097-  34 2.47  42 2.48  40 2.49  70 2.51  20 2.54   8 2.54  61 2.57  51 2.59
                            67 2.59  28 2.61  45 2.61   7 2.62
  13  0.352  0.031  0.173-  66 2.49  42 2.53   8 2.54  64 2.54   5 2.54  48 2.56   4 2.56  38 2.57
                            58 2.60   2 2.61   3 2.61  33 2.65
  14  0.848  0.967  0.247-  62 2.52  11 2.52  65 2.55  56 2.55  66 2.57   3 2.58  39 2.58  38 2.64
                             2 2.65
  15  0.850  0.640  0.096-  41 2.49  19 2.51  35 2.51  43 2.51   9 2.53  17 2.55  53 2.56  22 2.57
                            67 2.58  18 2.58  27 2.60  59 2.66
  16  0.690  0.482  0.238-  54 2.39  44 2.43  23 2.44  25 2.47  35 2.48   1 2.53  51 2.54   6 2.58
                            60 2.72
  17  0.688  0.694  0.169-  44 2.47  23 2.48  33 2.50  35 2.51  43 2.53  62 2.53  27 2.54  25 2.55
                            15 2.55  11 2.60  59 2.61  26 2.69
  18  0.017  0.810  0.101-  53 2.51  29 2.52  43 2.53  21 2.53   5 2.53  27 2.54  47 2.54  19 2.54
                            32 2.57  15 2.58  62 2.59  64 2.60
  19  0.019  0.702  0.028-  53 2.46  47 2.48  15 2.51  32 2.52  18 2.54   9 2.54  41 2.56  36 2.57
                            55 2.61
  20  0.357  0.358  0.025-  45 2.51  69 2.53  12 2.54  70 2.55   7 2.56  40 2.58  55 2.63  37 2.67
                            57 2.76
  21  0.850  0.975  0.100-  71 2.49  32 2.51  43 2.52  34 2.52  18 2.53  46 2.54  50 2.54  38 2.54
                            62 2.56   5 2.57  48 2.58   3 2.61
  22  0.015  0.471  0.096-   7 2.49  37 2.52  55 2.53  35 2.53  68 2.54  10 2.55  28 2.55  41 2.55
                            67 2.57  15 2.57  53 2.61  45 2.64
  23  0.526  0.640  0.239-  16 2.44  26 2.45  11 2.46  17 2.48  24 2.51  60 2.51  25 2.52  44 2.52

  24  0.355  0.801  0.245-  66 2.47  23 2.51  26 2.51  64 2.53  11 2.55   2 2.59  33 2.61  65 2.62

  25  0.522  0.527  0.169-  16 2.47  23 2.52  51 2.54  17 2.55  35 2.56  26 2.57  60 2.58  45 2.59
                            67 2.60  61 2.60  59 2.64  68 2.67
  26  0.343  0.691  0.174-  23 2.45  68 2.46  24 2.51  64 2.54  33 2.55  27 2.55  25 2.57  53 2.64
                            59 2.65  29 2.67  17 2.69
  27  0.015  0.692  0.171-  44 2.43  68 2.46  35 2.50  65 2.53  18 2.54  17 2.54  26 2.55  53 2.57
                            15 2.60  62 2.64  64 2.64
  28  0.853  0.302  0.098-  71 2.50  34 2.51  70 2.53  52 2.53  10 2.54  37 2.54  49 2.54  22 2.55
                            51 2.55   7 2.56  67 2.57  12 2.61
  29  0.341  0.810  0.099-  47 2.43  63 2.47  59 2.48  53 2.51   5 2.52  18 2.52  33 2.52  64 2.56
                            48 2.57  36 2.60  26 2.67  43 2.73
  30  0.342  0.025  0.031-  47 2.45   5 2.48  42 2.50  50 2.50  48 2.50  40 2.51  63 2.51  69 2.52
                            46 2.64
  31  0.181  0.314  0.244-   6 2.48   1 2.51  58 2.54  60 2.54  61 2.57  10 2.58   4 2.58  56 2.70
                            54 2.89
  32  0.849  0.866  0.029-   9 2.46  43 2.46  46 2.48  50 2.49  21 2.51  19 2.52  63 2.56  18 2.57
                            47 2.62
  33  0.517  0.855  0.169-  66 2.45  17 2.50  62 2.52  64 2.52  29 2.52  43 2.54  48 2.54  26 2.55
                            11 2.61  24 2.61  38 2.65  13 2.65
  34  0.684  0.139  0.099-  12 2.47  40 2.49  46 2.51  28 2.51  48 2.52  21 2.52  52 2.54  49 2.55
                            38 2.55  71 2.57   8 2.58  42 2.61
  35  0.850  0.528  0.167-  16 2.48  27 2.50   1 2.50  15 2.51  17 2.51  22 2.53  44 2.54  68 2.55
                            51 2.56  25 2.56  10 2.56  67 2.58
  36  0.348  0.701  0.023-  47 2.49  59 2.52  63 2.56  19 2.57  53 2.60  29 2.60  55 2.64  57 2.65
                             9 2.67
  37  0.015  0.357  0.025-  22 2.52   7 2.52  69 2.53  28 2.54  52 2.54  70 2.57  55 2.58  41 2.66
                            20 2.67
  38  0.683  0.030  0.172-  66 2.48  39 2.49  62 2.51  49 2.51   8 2.53  21 2.54  48 2.54  34 2.55
                            13 2.57   3 2.60  14 2.64  33 2.65
  39  0.680  0.137  0.243-  56 2.45  38 2.49   8 2.52  49 2.55  58 2.55  14 2.58  66 2.62  54 2.65
                             6 2.74
  40  0.516  0.186  0.028-  46 2.46  34 2.49  12 2.49  30 2.51  42 2.51  70 2.52  69 2.55  20 2.58
                            52 2.65
  41  0.852  0.535  0.024-  15 2.49  57 2.50  55 2.52  67 2.54   9 2.55  22 2.55  19 2.56  37 2.66
                            70 2.76
  42  0.349  0.140  0.100-  12 2.48  30 2.50  69 2.51  40 2.51   5 2.52  13 2.53  48 2.53   7 2.58
                             8 2.59   4 2.59  71 2.60  34 2.61
  43  0.692  0.807  0.098-  63 2.45  32 2.46  15 2.51   9 2.52  21 2.52  17 2.53  18 2.53  59 2.53
                            33 2.54  62 2.56  48 2.59  29 2.73
  44  0.850  0.641  0.239-  16 2.43  27 2.43  17 2.47  65 2.49   1 2.49  11 2.50  23 2.52  35 2.54

  45  0.354  0.473  0.095-  20 2.51   7 2.53  55 2.56  67 2.58  25 2.59  68 2.59  59 2.60  12 2.61
                            53 2.63  22 2.64  61 2.68  57 2.97
  46  0.681  0.026  0.029-  63 2.45  40 2.46  32 2.48  34 2.51  48 2.51  52 2.52  21 2.54  30 2.64
                            50 2.64
  47  0.185  0.863  0.030-  29 2.43  30 2.45  19 2.48  50 2.48  36 2.49  18 2.54   5 2.55  63 2.61
                            32 2.62
  48  0.517  0.975  0.100-  63 2.43  30 2.50  46 2.51  34 2.52  42 2.53  38 2.54  33 2.54  13 2.56
                            29 2.57  21 2.58  43 2.59   5 2.62
  49  0.844  0.196  0.172-  51 2.48   6 2.49  38 2.51   8 2.51  28 2.54  39 2.55  34 2.55  71 2.55
                            56 2.56  10 2.57   4 2.58   3 2.59
  50  0.021  0.025  0.029-  47 2.48  52 2.49  32 2.49  30 2.50   5 2.51  71 2.53  21 2.54  69 2.57
                            46 2.64
  51  0.687  0.360  0.170-  49 2.48   6 2.49   8 2.50  16 2.54  25 2.54  28 2.55  35 2.56  61 2.58
                            12 2.59  10 2.59  67 2.62  54 2.65
  52  0.856  0.188  0.027-  50 2.49  70 2.51  46 2.52  28 2.53  71 2.54  34 2.54  37 2.54  69 2.59
                            40 2.65
  53  0.178  0.645  0.096-  19 2.46  68 2.51  18 2.51  29 2.51  15 2.56  59 2.56  27 2.57  55 2.59
                            36 2.60  22 2.61  45 2.63  26 2.64
  54  0.551  0.322  0.253-  16 2.39   6 2.46  39 2.65  51 2.65  60 2.70  58 2.75  61 2.84   8 2.85
                            31 2.89
  55  0.177  0.528  0.024-  41 2.52  22 2.53  45 2.56  37 2.58  53 2.59  19 2.61  20 2.63  36 2.64
                            57 2.83
  56  0.994  0.141  0.247-  39 2.45   6 2.51  14 2.55   3 2.56  49 2.56   4 2.66   2 2.69  31 2.70
                            58 2.79
  57  0.537  0.535  0.009-  41 2.50   9 2.56  36 2.65  70 2.75  20 2.76  55 2.83  67 2.84  59 2.91
                            45 2.97
  58  0.353  0.150  0.245-  31 2.54  39 2.55   8 2.55   4 2.58  13 2.60   2 2.66  54 2.75  56 2.79
                            66 2.80
  59  0.508  0.649  0.095-  29 2.48  36 2.52  43 2.53  53 2.56   9 2.59  45 2.60  17 2.61  25 2.64
                            26 2.65  15 2.66  67 2.72  57 2.91
  60  0.340  0.484  0.241-  23 2.51   1 2.53  31 2.54  68 2.55  25 2.58  61 2.63  54 2.70  16 2.72

  61  0.355  0.355  0.171-   8 2.45   4 2.52  12 2.57  31 2.57   7 2.58  51 2.58  25 2.60  10 2.61
                            60 2.63  45 2.68  68 2.70  54 2.84
  62  0.840  0.864  0.173-  38 2.51  14 2.52  33 2.52  11 2.52  17 2.53   3 2.55  21 2.56  43 2.56
                            65 2.58  18 2.59  27 2.64  64 2.75  66 3.38
  63  0.520  0.865  0.032-  48 2.43  43 2.45  46 2.45  29 2.47  30 2.51   9 2.52  36 2.56  32 2.56
                            47 2.61
  64  0.193  0.862  0.174-  33 2.52  24 2.53  26 2.54  13 2.54   2 2.54  65 2.54  29 2.56   3 2.56
                             5 2.56  18 2.60  27 2.64  62 2.75  66 3.41
  65  0.018  0.801  0.243-  44 2.49  27 2.53  64 2.54  14 2.55  62 2.58   2 2.61  11 2.61  24 2.62

  66  0.520  0.962  0.239-  33 2.45  11 2.45  24 2.47  38 2.48  13 2.49  14 2.57   2 2.59  39 2.62
                            58 2.80  62 3.38  64 3.41
  67  0.685  0.470  0.094-  70 2.52  41 2.54  22 2.57  28 2.57  45 2.58  35 2.58  15 2.58  12 2.59
                            25 2.60  51 2.62  59 2.72  57 2.84
  68  0.178  0.532  0.167-  26 2.46  27 2.46   1 2.51  53 2.51  22 2.54  35 2.55  60 2.55  10 2.56
                            45 2.59  25 2.67  61 2.70
  69  0.189  0.194  0.028-   7 2.50  42 2.51  30 2.52  20 2.53  37 2.53  40 2.55  50 2.57  52 2.59
                            71 2.60
  70  0.684  0.349  0.026-  52 2.51  12 2.51  40 2.52  67 2.52  28 2.53  20 2.55  37 2.57  57 2.75
                            41 2.76
  71  0.014  0.137  0.101-   5 2.48  21 2.49  28 2.50  50 2.53  52 2.54   4 2.54  49 2.55  34 2.57
                             3 2.58  69 2.60  42 2.60   7 2.61
 
  LATTYP: Found a simple orthorhombic cell.
 ALAT       =     7.7784981728
 B/A-ratio  =     1.6889770438
 C/A-ratio  =     3.6971751997
  
  Lattice vectors:
  
 A1 = (   7.7784981728,   0.0000000000,   0.0000000000)
 A2 = (   0.0000000000,  13.1377048492,   0.0000000000)
 A3 = (   0.0000000000,   0.0000000000,  28.7584705353)


Analysis of symmetry for initial positions (statically):
=====================================================================
 Subroutine PRICEL returns:
 Original cell was already a primitive cell.
 

 Routine SETGRP: Setting up the symmetry group for a 
 simple orthorhombic supercell.


 Subroutine GETGRP returns: Found  1 space group operations
 (whereof  1 operations were pure point group operations)
 out of a pool of  8 trial point group operations.


The static configuration has the point symmetry C_1 .


Analysis of symmetry for dynamics (positions and initial velocities):
=====================================================================
 Subroutine PRICEL returns:
 Original cell was already a primitive cell.
 

 Routine SETGRP: Setting up the symmetry group for a 
 simple orthorhombic supercell.


 Subroutine GETGRP returns: Found  1 space group operations
 (whereof  1 operations were pure point group operations)
 out of a pool of  8 trial point group operations.


The dynamic configuration has the point symmetry C_1 .


Analysis of constrained symmetry for selective dynamics:
=====================================================================
 Subroutine PRICEL returns:
 Original cell was already a primitive cell.
 

 Routine SETGRP: Setting up the symmetry group for a 
 simple orthorhombic supercell.


 Subroutine GETGRP returns: Found  1 space group operations
 (whereof  1 operations were pure point group operations)
 out of a pool of  8 trial point group operations.


The constrained configuration has the point symmetry C_1 .


Analysis of structural, dynamic, and magnetic symmetry:
=====================================================================
 Subroutine PRICEL returns:
 Original cell was already a primitive cell.
 

 Routine SETGRP: Setting up the symmetry group for a 
 simple orthorhombic supercell.


 Subroutine GETGRP returns: Found  1 space group operations
 (whereof  1 operations were pure point group operations)
 out of a pool of  8 trial point group operations.


The magnetic configuration has the point symmetry C_1 .


 Subroutine INISYM returns: Found  1 space group operations
 (whereof  1 operations are pure point group operations),
 and found     1 'primitive' translations

 
 
 KPOINTS: k-points                                

Automatic generation of k-mesh.
Space group operators:
 irot       det(A)        alpha          n_x          n_y          n_z        tau_x        tau_y        tau_z
    1     1.000000     0.000000     1.000000     0.000000     0.000000     0.000000     0.000000     0.000000
 
 Subroutine IBZKPT returns following result:
 ===========================================
 
 Found      8 irreducible k-points:
 
 Following reciprocal coordinates:
            Coordinates               Weight
  0.125000  0.125000  0.000000      2.000000
  0.375000  0.125000  0.000000      2.000000
 -0.375000  0.125000  0.000000      2.000000
 -0.125000  0.125000  0.000000      2.000000
  0.125000  0.375000  0.000000      2.000000
  0.375000  0.375000  0.000000      2.000000
 -0.375000  0.375000  0.000000      2.000000
 -0.125000  0.375000  0.000000      2.000000
 
 Following cartesian coordinates:
            Coordinates               Weight
  0.016070  0.009515  0.000000      2.000000
  0.048210  0.009515  0.000000      2.000000
 -0.048210  0.009515  0.000000      2.000000
 -0.016070  0.009515  0.000000      2.000000
  0.016070  0.028544  0.000000      2.000000
  0.048210  0.028544  0.000000      2.000000
 -0.048210  0.028544  0.000000      2.000000
 -0.016070  0.028544  0.000000      2.000000
 


--------------------------------------------------------------------------------------------------------




 Dimension of arrays:
   k-points           NKPTS =      8   k-points in BZ     NKDIM =      8   number of bands    NBANDS=    444
   number of dos      NEDOS =    301   number of ions     NIONS =     71
   non local maximal  LDIM  =      6   non local SUM 2l+1 LMDIM =     18
   total plane-waves  NPLWV = 691200
   max r-space proj   IRMAX =   3792   max aug-charges    IRDMAX=  13623
   dimension x,y,z NGX =    48 NGY =   80 NGZ =  180
   dimension x,y,z NGXF=    96 NGYF=  160 NGZF=  360
   support grid    NGXF=    96 NGYF=  160 NGZF=  360
   ions per type =              53   6  12
   NGX,Y,Z   is equivalent  to a cutoff of  10.26, 10.12, 10.41 a.u.
   NGXF,Y,Z  is equivalent  to a cutoff of  20.52, 20.25, 20.81 a.u.

 SYSTEM =  clean (100) surface                     
 POSCAR =  Ni Nb  W                                

 Startparameter for this run:
   NWRITE =      2    write-flag & timer
   PREC   = normal    normal or accurate (medium, high low for compatibility)
   ISTART =      0    job   : 0-new  1-cont  2-samecut
   ICHARG =      2    charge: 1-file 2-atom 10-const
   ISPIN  =      2    spin polarized calculation?
   LNONCOLLINEAR =      F non collinear calculations
   LSORBIT =      F    spin-orbit coupling
   INIWAV =      1    electr: 0-lowe 1-rand  2-diag
   LASPH  =      F    aspherical Exc in radial PAW
   METAGGA=      F    non-selfconsistent MetaGGA calc.

 Electronic Relaxation 1
   ENCUT  =  600.0 eV  44.10 Ry    6.64 a.u.  15.54 26.24 57.44*2*pi/ulx,y,z
   ENINI  =  600.0     initial cutoff
   ENAUG  =  544.6 eV  augmentation charge cutoff
   NELM   =     60;   NELMIN=  2; NELMDL= -5     # of ELM steps 
   EDIFF  = 0.1E-05   stopping-criterion for ELM
   LREAL  =      T    real-space projection
   NLSPLINE    = F    spline interpolate recip. space projectors
   LCOMPAT=      F    compatible to vasp.4.4
   GGA_COMPAT  = T    GGA compatible to vasp.4.4-vasp.4.6
   LMAXPAW     = -100 max onsite density
   LMAXMIX     =    2 max onsite mixed and CHGCAR
   VOSKOWN=      0    Vosko Wilk Nusair interpolation
   ROPT   =   -0.00050  -0.00050  -0.00050
 Ionic relaxation
   EDIFFG = -.1E-01   stopping-criterion for IOM
   NSW    =    250    number of steps for IOM
   NBLOCK =      1;   KBLOCK =    250    inner block; outer block 
   IBRION =      2    ionic relax: 0-MD 1-quasi-New 2-CG
   NFREE  =      1    steps in history (QN), initial steepest desc. (CG)
   ISIF   =      2    stress and relaxation
   IWAVPR =     11    prediction:  0-non 1-charg 2-wave 3-comb
   ISYM   =      2    0-nonsym 1-usesym 2-fastsym
   LCORR  =      T    Harris-Foulkes like correction to forces

   POTIM  = 0.1000    time-step for ionic-motion
   TEIN   =    0.0    initial temperature
   TEBEG  =    0.0;   TEEND  =   0.0 temperature during run
   SMASS  =  -3.00    Nose mass-parameter (am)
   estimated Nose-frequenzy (Omega)   =  0.10E-29 period in steps =****** mass=  -0.138E-26a.u.
   SCALEE = 1.0000    scale energy and forces
   NPACO  =    256;   APACO  = 16.0  distance and # of slots for P.C.
   PSTRESS=    0.0 pullay stress

  Mass of Ions in am
   POMASS =  58.69 92.91183.85
  Ionic Valenz
   ZVAL   =  10.00 13.00  6.00
  Atomic Wigner-Seitz radii
   RWIGS  =  -1.00 -1.00 -1.00
  virtual crystal weights 
   VCA    =   1.00  1.00  1.00
   NELECT =     680.0000    total number of electrons
   NUPDOWN=      -1.0000    fix difference up-down

 DOS related values:
   EMIN   =  10.00;   EMAX   =-10.00  energy-range for DOS
   EFERMI =   0.00
   ISMEAR =     2;   SIGMA  =   0.20  broadening in eV -4-tet -1-fermi 0-gaus

 Electronic relaxation 2 (details)
   IALGO  =     68    algorithm
   LDIAG  =      T    sub-space diagonalisation (order eigenvalues)
   LSUBROT=      F    optimize rotation matrix (better conditioning)
   TURBO    =      0    0=normal 1=particle mesh
   IRESTART =      0    0=no restart 2=restart with 2 vectors
   NREBOOT  =      0    no. of reboots
   NMIN     =      0    reboot dimension
   EREF     =   0.00    reference energy to select bands
   IMIX   =      4    mixing-type and parameters
     AMIX     =   0.40;   BMIX     =  1.00
     AMIX_MAG =   1.60;   BMIX_MAG =  1.00
     AMIN     =   0.10
     WC   =   100.;   INIMIX=   1;  MIXPRE=   1;  MAXMIX= -45

 Intra band minimization:
   WEIMIN = 0.0010     energy-eigenvalue tresh-hold
   EBREAK =  0.56E-09  absolut break condition
   DEPER  =   0.30     relativ break condition  

   TIME   =   0.40     timestep for ELM

  volume/ion in A,a.u.               =      41.39       279.33
  Fermi-wavevector in a.u.,A,eV,Ry     =   1.005042  1.899254 13.743367  1.010109
  Thomas-Fermi vector in A             =   2.137696
 
 Write flags
   LWAVE        =      F    write WAVECAR
   LDOWNSAMPLE  =      F    k-point downsampling of WAVECAR
   LCHARG       =      F    write CHGCAR
   LVTOT        =      F    write LOCPOT, total local potential
   LVHAR        =      F    write LOCPOT, Hartree potential only
   LELF         =      F    write electronic localiz. function (ELF)
   LORBIT       =      0    0 simple, 1 ext, 2 COOP (PROOUT), +10 PAW based schemes


 Dipole corrections
   LMONO  =      F    monopole corrections only (constant potential shift)
   LDIPOL =      F    correct potential (dipole corrections)
   IDIPOL =      0    1-x, 2-y, 3-z, 4-all directions 
   EPSILON=  1.0000000 bulk dielectric constant

 Exchange correlation treatment:
   GGA     =    --    GGA type
   LEXCH   =     8    internal setting for exchange type
   VOSKOWN=      0    Vosko Wilk Nusair interpolation
   LHFCALC =     F    Hartree Fock is set to
   LHFONE  =     F    Hartree Fock one center treatment
   AEXX    =    0.0000 exact exchange contribution

 Linear response parameters
   LEPSILON=     F    determine dielectric tensor
   LRPA    =     F    only Hartree local field effects (RPA)
   LNABLA  =     F    use nabla operator in PAW spheres
   LVEL    =     F    velocity operator in full k-point grid
   LINTERFAST=   F  fast interpolation
   KINTER  =     0    interpolate to denser k-point grid
   CSHIFT  =0.1000    complex shift for real part using Kramers Kronig
   OMEGAMAX=  -1.0    maximum frequency
   DEG_THRESHOLD= 0.2000000E-02 threshold for treating states as degnerate
   RTIME   =   -0.100 relaxation time in fs
  (WPLASMAI=    0.000 imaginary part of plasma frequency in eV, 0.658/RTIME)
   DFIELD  = 0.0000000 0.0000000 0.0000000 field for delta impulse in time
 
 Orbital magnetization related:
   ORBITALMAG=     F  switch on orbital magnetization
   LCHIMAG   =     F  perturbation theory with respect to B field
   DQ        =  0.001000  dq finite difference perturbation B field
   LLRAUG    =     F  two centre corrections for induced B field



--------------------------------------------------------------------------------------------------------


 conjugate gradient relaxation of ions
   using selective dynamics as specified on POSCAR
 charge density and potential will be updated during run
 spin polarized calculation
 RMM-DIIS sequential band-by-band and
  variant of blocked Davidson during initial phase
 perform sub-space diagonalisation
    before iterative eigenvector-optimisation
 modified Broyden-mixing scheme, WC =      100.0
 initial mixing is a Kerker type mixing with AMIX =  0.4000 and BMIX =      1.0000
 Hartree-type preconditioning will be used
 using additional bands          104
 real space projection scheme for non local part
 use partial core corrections
 calculate Harris-corrections to forces 
   (improved forces if not selfconsistent)
 use gradient corrections 
 use of overlap-Matrix (Vanderbilt PP)
 Methfessel and Paxton  Order N= 2 SIGMA  =   0.20


--------------------------------------------------------------------------------------------------------


  energy-cutoff  :      600.00
  volume of cell :     2938.87
      direct lattice vectors                 reciprocal lattice vectors
     7.778498173  0.000000000  0.000000000     0.128559521  0.000000000  0.000000000
     0.000000000 13.137704849  0.000000000     0.000000000  0.076116796  0.000000000
     0.000000000  0.000000000 28.758470535     0.000000000  0.000000000  0.034772364

  length of vectors
     7.778498173 13.137704849 28.758470535     0.128559521  0.076116796  0.034772364


 
 k-points in units of 2pi/SCALE and weight: k-points                                
   0.01606994  0.00951460  0.00000000       0.125
   0.04820982  0.00951460  0.00000000       0.125
  -0.04820982  0.00951460  0.00000000       0.125
  -0.01606994  0.00951460  0.00000000       0.125
   0.01606994  0.02854380  0.00000000       0.125
   0.04820982  0.02854380  0.00000000       0.125
  -0.04820982  0.02854380  0.00000000       0.125
  -0.01606994  0.02854380  0.00000000       0.125
 
 k-points in reciprocal lattice and weights: k-points                                
   0.12500000  0.12500000  0.00000000       0.125
   0.37500000  0.12500000  0.00000000       0.125
  -0.37500000  0.12500000  0.00000000       0.125
  -0.12500000  0.12500000  0.00000000       0.125
   0.12500000  0.37500000  0.00000000       0.125
   0.37500000  0.37500000  0.00000000       0.125
  -0.37500000  0.37500000  0.00000000       0.125
  -0.12500000  0.37500000  0.00000000       0.125
 
 position of ions in fractional coordinates (direct lattice) 
   0.01558756  0.47825060  0.23803258
   0.18862815  0.97217358  0.24700695
   0.01725792  0.02728754  0.17507273
   0.17583434  0.19605898  0.17265457
   0.18046863  0.97622999  0.10179774
   0.86323890  0.31460308  0.23888799
   0.18185604  0.30932552  0.09726507
   0.52113449  0.19677812  0.17226484
   0.69174629  0.70353079  0.02474701
   0.01999413  0.36109512  0.16876245
   0.68234915  0.80218184  0.24474670
   0.51774710  0.29964626  0.09743019
   0.35248767  0.03146435  0.17271350
   0.84819493  0.96726386  0.24709383
   0.84975159  0.64034343  0.09611478
   0.69003221  0.48194539  0.23821661
   0.68825980  0.69373962  0.16919503
   0.01693361  0.80953777  0.10123293
   0.01854145  0.70249915  0.02756251
   0.35722980  0.35799846  0.02523561
   0.84954042  0.97457082  0.10040603
   0.01473417  0.47088006  0.09566164
   0.52583977  0.63993271  0.23917093
   0.35466086  0.80114266  0.24519745
   0.52168020  0.52693343  0.16852118
   0.34305075  0.69064362  0.17393511
   0.01505866  0.69184452  0.17112298
   0.85340101  0.30194870  0.09793551
   0.34136507  0.80951512  0.09855519
   0.34221569  0.02505720  0.03075818
   0.18089923  0.31442653  0.24443204
   0.84868544  0.86561239  0.02883669
   0.51697998  0.85457176  0.16946724
   0.68406248  0.13931978  0.09872251
   0.85046612  0.52846170  0.16687413
   0.34826052  0.70073599  0.02297433
   0.01460779  0.35665453  0.02537953
   0.68316234  0.03020681  0.17210905
   0.68028314  0.13681082  0.24348822
   0.51575571  0.18565848  0.02818314
   0.85233480  0.53454304  0.02420950
   0.34853640  0.13978804  0.09994262
   0.69231445  0.80715913  0.09830730
   0.85004028  0.64065413  0.23890363
   0.35363471  0.47321785  0.09489550
   0.68127644  0.02587022  0.02861967
   0.18514094  0.86345625  0.02970118
   0.51737798  0.97506022  0.10017661
   0.84395176  0.19565072  0.17166746
   0.02116681  0.02542408  0.02909101
   0.68704326  0.35984400  0.16981754
   0.85591453  0.18764234  0.02693425
   0.17837599  0.64452368  0.09640931
   0.55131697  0.32223596  0.25251319
   0.17667772  0.52758628  0.02393096
   0.99436144  0.14131488  0.24685469
   0.53659064  0.53547454  0.00882442
   0.35280540  0.14964001  0.24540494
   0.50784022  0.64876383  0.09540285
   0.33992388  0.48352299  0.24086651
   0.35528866  0.35542011  0.17079452
   0.84015336  0.86370207  0.17341584
   0.52003181  0.86542088  0.03216955
   0.19341373  0.86244945  0.17415973
   0.01838078  0.80125268  0.24344433
   0.51986552  0.96155191  0.23903752
   0.68470490  0.47014680  0.09402694
   0.17814318  0.53150047  0.16673336
   0.18877402  0.19379635  0.02819043
   0.68436050  0.34922993  0.02600386
   0.01388492  0.13711317  0.10066884
 
 position of ions in cartesian coordinates  (Angst):
   0.12124781  6.28311527  6.84545299
   1.46724376 12.77212951  7.10354223
   0.13424073  0.35849570  5.03482403
   1.36772713  2.57576502  4.96528123
   1.40377492 12.82542142  2.92754743
   6.71470220  4.13316248  6.87005330
   1.41456684  4.06382733  2.79719471
   4.05364365  2.58521281  4.95407342
   5.38074728  9.24277985  0.71168616
   0.15552431  4.74396116  4.85334988
   5.30765161 10.53882819  7.03854066
   4.02729490  3.93666410  2.80194331
   2.74182468  0.41336928  4.96697618
   6.59768273 12.70762708  7.10604073
   6.60979121  8.41264296  2.76411398
   5.36741430  6.33165630  6.85074549
   5.35362758  9.11414635  4.86579028
   0.13171808 10.63546826  2.91130420
   0.14422466  9.22922650  0.79265557
   2.77871134  4.70327812  0.72573760
   6.60814862 12.80362381  2.88752373
   0.11460971  6.18628326  2.75108246
   4.09024371  8.40724705  6.87819025
   2.75872884 10.52517580  7.05150365
   4.05788851  6.92269591  4.84641128
   2.66841960  9.07347204  5.00210780
   0.11713374  9.08924915  4.92123514
   6.63817816  3.96691285  2.81647533
   2.65530757 10.63517070  2.83429638
   2.66192410  0.32919415  0.88455827
   1.40712435  4.13084289  7.02949153
   6.60149817 11.37216007  0.82929898
   4.02132779 11.22711155  4.87361858
   5.32097876  1.83034211  2.83910840
   6.61534914  6.94277388  4.79904473
   2.70894383  9.20606256  0.66070651
   0.11362668  4.68562188  0.72987655
   5.31397704  0.39684810  4.94959302
   5.29158118  1.79738022  7.00234866
   4.01180487  2.43912638  0.81050394
   6.62988466  7.02266865  0.69622822
   2.71108973  1.83649395  2.87419694
   5.38516665 10.60421836  2.82716771
   6.61203673  8.41672481  6.87050303
   2.75074698  6.21699638  2.72904956
   5.29930755  0.33987533  0.82305802
   1.44011845 11.34383335  0.85416062
   4.02442363 12.81005334  2.88092618
   6.56467722  2.57040140  4.93689346
   0.16464597  0.33401409  0.83661310
   5.34416471  4.72752423  4.88369272
   6.65772963  2.46518963  0.77458786
   1.38749730  8.46756188  2.77258419
   4.28841802  4.23344089  7.26189310
   1.37428731  6.93127284  0.68821769
   7.73463864  1.85655325  7.09916324
   4.17386928  7.03490645  0.25377674
   2.74429615  1.96592631  7.05747069
   3.95023419  8.52326778  2.74364011
   2.64409726  6.35238228  6.92695247
   2.76361220  4.66940457  4.91178925
   6.53513137 11.34706291  4.98717429
   4.04506648 11.36964407  0.92514697
   1.50446836 11.33060626  5.00856744
   0.14297485 10.52662121  7.00108654
   4.04377301 12.63258517  6.87435351
   5.32597581  6.17664996  2.70407093
   1.38568644  6.98269625  4.79499631
   1.46837836  2.54603927  0.81071371
   5.32329693  4.58807977  0.74783136
   0.10800379  1.80135236  2.89508182
 


--------------------------------------------------------------------------------------------------------


 k-point  1 :   0.1250 0.1250 0.0000  plane waves:   98110
 k-point  2 :   0.3750 0.1250 0.0000  plane waves:   98013
 k-point  3 :  -0.3750 0.1250 0.0000  plane waves:   98013
 k-point  4 :  -0.1250 0.1250 0.0000  plane waves:   98110
 k-point  5 :   0.1250 0.3750 0.0000  plane waves:   98128
 k-point  6 :   0.3750 0.3750 0.0000  plane waves:   98036
 k-point  7 :  -0.3750 0.3750 0.0000  plane waves:   98036
 k-point  8 :  -0.1250 0.3750 0.0000  plane waves:   98128

 maximum and minimum number of plane-waves per node :      6571     6518

 maximum number of plane-waves:     98128
 maximum index in each direction: 
   IXMAX=   15   IYMAX=   26   IZMAX=   57
   IXMIN=  -15   IYMIN=  -26   IZMIN=  -57


 real space projection operators:
  total allocation   :      25080.75 KBytes
  max/ min on nodes  :       2139.47       1416.94


 parallel 3D FFT for wavefunctions:
    minimum data exchange during FFTs selected (reduces bandwidth)
 parallel 3D FFT for charge:
    minimum data exchange during FFTs selected (reduces bandwidth)


 total amount of memory used by VASP MPI-rank0   246285. kBytes
=======================================================================

   base      :      30000. kBytes
   nonlr-proj:       7215. kBytes
   fftplans  :       5432. kBytes
   grid      :      14801. kBytes
   one-center:        155. kBytes
   wavefun   :     188682. kBytes
 
     INWAV:  cpu time    0.0000: real time    0.0000
 Broyden mixing: mesh for mixing (old mesh)
   NGX = 31   NGY = 53   NGZ =115
  (NGX  = 96   NGY  =160   NGZ  =360)
  gives a total of 188945 points

 initial charge density was supplied:
 charge density of overlapping atoms calculated
 number of electron     680.0000000 magnetization      71.0000000
 keeping initial charge density in first step


--------------------------------------------------------------------------------------------------------


 Maximum index for non-local projection operator          550
 Maximum index for augmentation-charges          666 (set IRDMAX)


--------------------------------------------------------------------------------------------------------


 First call to EWALD:  gamma=   0.124
 Maximum number of real-space cells 5x 3x 2
 Maximum number of reciprocal cells 2x 3x 5

    FEWALD:  cpu time    0.0034: real time    0.0035


--------------------------------------- Iteration      1(   1)  ---------------------------------------


    POTLOK:  cpu time    0.1348: real time    0.1387
    SETDIJ:  cpu time    0.0183: real time    0.0184
     EDDAV:  cpu time   33.9668: real time   34.1512
       DOS:  cpu time    0.0058: real time    0.0058
    --------------------------------------------
      LOOP:  cpu time   34.1257: real time   34.3142

 eigenvalue-minimisations  : 14368
 total energy-change (2. order) : 0.6221742E+04  (-0.3090512E+05)
 number of electron     680.0000000 magnetization      71.0000000
 augmentation part      680.0000000 magnetization      71.0000000

 Free energy of the ion-electron system (eV)
  ---------------------------------------------------
  alpha Z        PSCENC =      1732.79109506
  Ewald energy   TEWEN  =    446794.45875968
  -Hartree energ DENC   =   -512328.92839751
  -exchange      EXHF   =         0.00000000
  -V(xc)+E(xc)   XCENC  =      1433.77738913
  PAW double counting   =     56441.04065227   -59157.84927600
  entropy T*S    EENTRO =        -0.01663285
  eigenvalues    EBANDS =      2391.29395546
  atomic energy  EATOM  =     68915.17493688
  Solvation  Ediel_sol  =         0.00000000
  ---------------------------------------------------
  free energy    TOTEN  =      6221.74248210 eV

  energy without entropy =     6221.75911495  energy(sigma->0) =     6221.74664032


--------------------------------------------------------------------------------------------------------




--------------------------------------- Iteration      1(   2)  ---------------------------------------


     EDDAV:  cpu time   33.2807: real time   33.4173
       DOS:  cpu time    0.0053: real time    0.0053
    --------------------------------------------
      LOOP:  cpu time   33.2859: real time   33.4226

 eigenvalue-minimisations  : 14208
 total energy-change (2. order) :-0.5941027E+04  (-0.5648927E+04)
 number of electron     680.0000000 magnetization      71.0000000
 augmentation part      680.0000000 magnetization      71.0000000

 Free energy of the ion-electron system (eV)
  ---------------------------------------------------
  alpha Z        PSCENC =      1732.79109506
  Ewald energy   TEWEN  =    446794.45875968
  -Hartree energ DENC   =   -512328.92839751
  -exchange      EXHF   =         0.00000000
  -V(xc)+E(xc)   XCENC  =      1433.77738913
  PAW double counting   =     56441.04065227   -59157.84927600
  entropy T*S    EENTRO =        -0.00271360
  eigenvalues    EBANDS =     -3549.74716591
  atomic energy  EATOM  =     68915.17493688
  Solvation  Ediel_sol  =         0.00000000
  ---------------------------------------------------
  free energy    TOTEN  =       280.71527999 eV

  energy without entropy =      280.71799359  energy(sigma->0) =      280.71595839


--------------------------------------------------------------------------------------------------------




--------------------------------------- Iteration      1(   3)  ---------------------------------------


     EDDAV:  cpu time   37.4329: real time   37.5825
       DOS:  cpu time    0.0054: real time    0.0055
    --------------------------------------------
      LOOP:  cpu time   37.4384: real time   37.5879

 eigenvalue-minimisations  : 16544
 total energy-change (2. order) :-0.7198815E+03  (-0.6599592E+03)
 number of electron     680.0000000 magnetization      71.0000000
 augmentation part      680.0000000 magnetization      71.0000000

 Free energy of the ion-electron system (eV)
  ---------------------------------------------------
  alpha Z        PSCENC =      1732.79109506
  Ewald energy   TEWEN  =    446794.45875968
  -Hartree energ DENC   =   -512328.92839751
  -exchange      EXHF   =         0.00000000
  -V(xc)+E(xc)   XCENC  =      1433.77738913
  PAW double counting   =     56441.04065227   -59157.84927600
  entropy T*S    EENTRO =        -0.02764790
  eigenvalues    EBANDS =     -4269.60373015
  atomic energy  EATOM  =     68915.17493688
  Solvation  Ediel_sol  =         0.00000000
  ---------------------------------------------------
  free energy    TOTEN  =      -439.16621855 eV

  energy without entropy =     -439.13857065  energy(sigma->0) =     -439.15930658


--------------------------------------------------------------------------------------------------------




--------------------------------------- Iteration      1(   4)  ---------------------------------------


     EDDAV:  cpu time   46.1792: real time   46.3733
       DOS:  cpu time    0.0046: real time    0.0063
    --------------------------------------------
      LOOP:  cpu time   46.1838: real time   46.3797

 eigenvalue-minimisations  : 21648
 total energy-change (2. order) :-0.1004549E+03  (-0.9052884E+02)
 number of electron     680.0000000 magnetization      71.0000000
 augmentation part      680.0000000 magnetization      71.0000000

 Free energy of the ion-electron system (eV)
  ---------------------------------------------------
  alpha Z        PSCENC =      1732.79109506
  Ewald energy   TEWEN  =    446794.45875968
  -Hartree energ DENC   =   -512328.92839751
  -exchange      EXHF   =         0.00000000
  -V(xc)+E(xc)   XCENC  =      1433.77738913
  PAW double counting   =     56441.04065227   -59157.84927600
  entropy T*S    EENTRO =         0.00939784
  eigenvalues    EBANDS =     -4370.09565534
  atomic energy  EATOM  =     68915.17493688
  Solvation  Ediel_sol  =         0.00000000
  ---------------------------------------------------
  free energy    TOTEN  =      -539.62109800 eV

  energy without entropy =     -539.63049584  energy(sigma->0) =     -539.62344746


--------------------------------------------------------------------------------------------------------




--------------------------------------- Iteration      1(   5)  ---------------------------------------


     EDDAV:  cpu time   50.0153: real time   50.2319
       DOS:  cpu time    0.0058: real time    0.0059
    CHARGE:  cpu time    1.3440: real time    1.3505
    MIXING:  cpu time    0.0023: real time    0.0023
    --------------------------------------------
      LOOP:  cpu time   51.3674: real time   51.5907

 eigenvalue-minimisations  : 23784
 total energy-change (2. order) :-0.1093603E+02  (-0.1059674E+02)
 number of electron     680.0000171 magnetization      68.6371711
 augmentation part      306.5506628 magnetization      58.8469572

 Broyden mixing:
  rms(total) = 0.99253E+01    rms(broyden)= 0.99253E+01
  rms(prec ) = 0.10174E+02
  weight for this iteration     100.00

 Free energy of the ion-electron system (eV)
  ---------------------------------------------------
  alpha Z        PSCENC =      1732.79109506
  Ewald energy   TEWEN  =    446794.45875968
  -Hartree energ DENC   =   -512328.92839751
  -exchange      EXHF   =         0.00000000
  -V(xc)+E(xc)   XCENC  =      1433.77738913
  PAW double counting   =     56441.04065227   -59157.84927600
  entropy T*S    EENTRO =         0.01116582
  eigenvalues    EBANDS =     -4381.03345704
  atomic energy  EATOM  =     68915.17493688
  Solvation  Ediel_sol  =         0.00000000
  ---------------------------------------------------
  free energy    TOTEN  =      -550.55713172 eV

  energy without entropy =     -550.56829754  energy(sigma->0) =     -550.55992318


--------------------------------------------------------------------------------------------------------




--------------------------------------- Iteration      1(   6)  ---------------------------------------


    POTLOK:  cpu time    0.1268: real time    0.1276
    SETDIJ:  cpu time    0.0101: real time    0.0101
    EDDIAG:  cpu time    7.0868: real time    7.1188
  RMM-DIIS:  cpu time   10.4329: real time   10.4746
    ORTHCH:  cpu time    2.8548: real time    2.8674
       DOS:  cpu time    0.0052: real time    0.0052
    CHARGE:  cpu time    1.3200: real time    1.3255
    MIXING:  cpu time    0.0026: real time    0.0073
    --------------------------------------------
      LOOP:  cpu time   21.8391: real time   21.9366

 eigenvalue-minimisations  : 15087
 total energy-change (2. order) :-0.1510355E+03  (-0.1178456E+03)
 number of electron     680.0000203 magnetization      66.7449737
 augmentation part      390.7171434 magnetization      57.3252661

 Broyden mixing:
  rms(total) = 0.10521E+02    rms(broyden)= 0.10521E+02
  rms(prec ) = 0.11485E+02
  weight for this iteration     100.00

 eigenvalues of (default mixing * dielectric matrix)
  average eigenvalue GAMMA=   0.4508
  0.4508

 Free energy of the ion-electron system (eV)
  ---------------------------------------------------
  alpha Z        PSCENC =      1732.79109506
  Ewald energy   TEWEN  =    446794.45875968
  -Hartree energ DENC   =   -510883.66174092
  -exchange      EXHF   =         0.00000000
  -V(xc)+E(xc)   XCENC  =      1357.31035069
  PAW double counting   =     58760.41410244   -61178.64700625
  entropy T*S    EENTRO =         0.00267756
  eigenvalues    EBANDS =     -6199.43577872
  atomic energy  EATOM  =     68915.17493688
  Solvation  Ediel_sol  =         0.00000000
  ---------------------------------------------------
  free energy    TOTEN  =      -701.59260359 eV

  energy without entropy =     -701.59528115  energy(sigma->0) =     -701.59327298


--------------------------------------------------------------------------------------------------------




--------------------------------------- Iteration      1(   7)  ---------------------------------------


    POTLOK:  cpu time    0.1260: real time    0.1267
    SETDIJ:  cpu time    0.0102: real time    0.0102
    EDDIAG:  cpu time    7.0702: real time    7.0988
  RMM-DIIS:  cpu time   10.0761: real time   10.1198
    ORTHCH:  cpu time    2.8505: real time    2.8617
       DOS:  cpu time    0.0054: real time    0.0054
    CHARGE:  cpu time    1.3389: real time    1.3446
    MIXING:  cpu time    0.0023: real time    0.0032
    --------------------------------------------
      LOOP:  cpu time   21.4795: real time   21.5705

 eigenvalue-minimisations  : 14571
 total energy-change (2. order) : 0.1650343E+03  (-0.5605949E+02)
 number of electron     680.0000214 magnetization      65.5457012
 augmentation part      318.3762388 magnetization      48.9490612

 Broyden mixing:
  rms(total) = 0.91073E+01    rms(broyden)= 0.91072E+01
  rms(prec ) = 0.11571E+02
  weight for this iteration     100.00

 eigenvalues of (default mixing * dielectric matrix)
  average eigenvalue GAMMA=   0.5101
  0.7557  0.2646

 Free energy of the ion-electron system (eV)
  ---------------------------------------------------
  alpha Z        PSCENC =      1732.79109506
  Ewald energy   TEWEN  =    446794.45875968
  -Hartree energ DENC   =   -512180.21336369
  -exchange      EXHF   =         0.00000000
  -V(xc)+E(xc)   XCENC  =      1405.34308776
  PAW double counting   =     60838.30778722   -63606.73659581
  entropy T*S    EENTRO =        -0.01382222
  eigenvalues    EBANDS =     -4435.67017364
  atomic energy  EATOM  =     68915.17493688
  Solvation  Ediel_sol  =         0.00000000
  ---------------------------------------------------
  free energy    TOTEN  =      -536.55828877 eV

  energy without entropy =     -536.54446654  energy(sigma->0) =     -536.55483321


--------------------------------------------------------------------------------------------------------




--------------------------------------- Iteration      1(   8)  ---------------------------------------


    POTLOK:  cpu time    0.1249: real time    0.1257
    SETDIJ:  cpu time    0.0096: real time    0.0097
    EDDIAG:  cpu time    7.1140: real time    7.1417
  RMM-DIIS:  cpu time   10.1181: real time   10.1618
    ORTHCH:  cpu time    2.8438: real time    2.8545
       DOS:  cpu time    0.0052: real time    0.0052
    CHARGE:  cpu time    1.3375: real time    1.3430
    MIXING:  cpu time    0.0021: real time    0.0022
    --------------------------------------------
      LOOP:  cpu time   21.5552: real time   21.6438

 eigenvalue-minimisations  : 14599
 total energy-change (2. order) :-0.2013320E+03  (-0.1569569E+02)
 number of electron     680.0000072 magnetization      63.5148588
 augmentation part      309.6319630 magnetization      47.2886525

 Broyden mixing:
  rms(total) = 0.18629E+02    rms(broyden)= 0.18629E+02
  rms(prec ) = 0.23418E+02
  weight for this iteration     100.00

 eigenvalues of (default mixing * dielectric matrix)
  average eigenvalue GAMMA=   0.5261
  1.1947  0.3056  0.0782

 Free energy of the ion-electron system (eV)
  ---------------------------------------------------
  alpha Z        PSCENC =      1732.79109506
  Ewald energy   TEWEN  =    446794.45875968
  -Hartree energ DENC   =   -511993.06648700
  -exchange      EXHF   =         0.00000000
  -V(xc)+E(xc)   XCENC  =      1407.16611645
  PAW double counting   =     61550.56582735   -64336.69392559
  entropy T*S    EENTRO =        -0.00142666
  eigenvalues    EBANDS =     -4808.28515611
  atomic energy  EATOM  =     68915.17493688
  Solvation  Ediel_sol  =         0.00000000
  ---------------------------------------------------
  free energy    TOTEN  =      -737.89025995 eV

  energy without entropy =     -737.88883329  energy(sigma->0) =     -737.88990328


--------------------------------------------------------------------------------------------------------




--------------------------------------- Iteration      1(   9)  ---------------------------------------


    POTLOK:  cpu time    0.1232: real time    0.1240
    SETDIJ:  cpu time    0.0101: real time    0.0101
    EDDIAG:  cpu time    7.0872: real time    7.1152
  RMM-DIIS:  cpu time    9.9959: real time   10.0395
    ORTHCH:  cpu time    2.8447: real time    2.8555
       DOS:  cpu time    0.0056: real time    0.0056
    CHARGE:  cpu time    1.3379: real time    1.3434
    MIXING:  cpu time    0.0030: real time    0.0035
    --------------------------------------------
      LOOP:  cpu time   21.4075: real time   21.4969

 eigenvalue-minimisations  : 14402
 total energy-change (2. order) : 0.1780193E+03  (-0.1813573E+02)
 number of electron     680.0000127 magnetization      62.3708230
 augmentation part      338.6372569 magnetization      43.9977125

 Broyden mixing:
  rms(total) = 0.10936E+02    rms(broyden)= 0.10936E+02
  rms(prec ) = 0.12033E+02
  weight for this iteration     100.00

 eigenvalues of (default mixing * dielectric matrix)
  average eigenvalue GAMMA=   0.4900
  1.4105  0.3421  0.1167  0.0905

 Free energy of the ion-electron system (eV)
  ---------------------------------------------------
  alpha Z        PSCENC =      1732.79109506
  Ewald energy   TEWEN  =    446794.45875968
  -Hartree energ DENC   =   -511804.17361696
  -exchange      EXHF   =         0.00000000
  -V(xc)+E(xc)   XCENC  =      1403.41946899
  PAW double counting   =     62531.42254838   -65315.48263995
  entropy T*S    EENTRO =        -0.01444131
  eigenvalues    EBANDS =     -4817.46710035
  atomic energy  EATOM  =     68915.17493688
  Solvation  Ediel_sol  =         0.00000000
  ---------------------------------------------------
  free energy    TOTEN  =      -559.87098957 eV

  energy without entropy =     -559.85654826  energy(sigma->0) =     -559.86737925


--------------------------------------------------------------------------------------------------------




--------------------------------------- Iteration      1(  10)  ---------------------------------------


    POTLOK:  cpu time    0.1259: real time    0.1267
    SETDIJ:  cpu time    0.0095: real time    0.0095
    EDDIAG:  cpu time    7.0671: real time    7.0941
  RMM-DIIS:  cpu time   10.1435: real time   10.1869
    ORTHCH:  cpu time    2.8486: real time    2.8597
       DOS:  cpu time    0.0048: real time    0.0048
    CHARGE:  cpu time    1.3255: real time    1.3307
    MIXING:  cpu time    0.0031: real time    0.0034
    --------------------------------------------
      LOOP:  cpu time   21.5280: real time   21.6158

 eigenvalue-minimisations  : 14575
 total energy-change (2. order) : 0.6426760E+02  (-0.8630490E+01)
 number of electron     680.0000198 magnetization      60.6729112
 augmentation part      359.9774642 magnetization      43.2554628

 Broyden mixing:
  rms(total) = 0.53155E+01    rms(broyden)= 0.53154E+01
  rms(prec ) = 0.58791E+01
  weight for this iteration     100.00

 eigenvalues of (default mixing * dielectric matrix)
  average eigenvalue GAMMA=   0.5024
  1.6310  0.4668  0.1669  0.1669  0.0804

 Free energy of the ion-electron system (eV)
  ---------------------------------------------------
  alpha Z        PSCENC =      1732.79109506
  Ewald energy   TEWEN  =    446794.45875968
  -Hartree energ DENC   =   -511613.20211571
  -exchange      EXHF   =         0.00000000
  -V(xc)+E(xc)   XCENC  =      1401.90050144
  PAW double counting   =     63045.00543504   -65826.54741798
  entropy T*S    EENTRO =        -0.00618897
  eigenvalues    EBANDS =     -4945.17839881
  atomic energy  EATOM  =     68915.17493688
  Solvation  Ediel_sol  =         0.00000000
  ---------------------------------------------------
  free energy    TOTEN  =      -495.60339338 eV

  energy without entropy =     -495.59720441  energy(sigma->0) =     -495.60184614


--------------------------------------------------------------------------------------------------------




--------------------------------------- Iteration      1(  11)  ---------------------------------------


    POTLOK:  cpu time    0.1248: real time    0.1255
    SETDIJ:  cpu time    0.0095: real time    0.0096
    EDDIAG:  cpu time    7.0595: real time    7.0869
  RMM-DIIS:  cpu time   10.0177: real time   10.0610
    ORTHCH:  cpu time    2.8486: real time    2.8599
       DOS:  cpu time    0.0048: real time    0.0048
    CHARGE:  cpu time    1.3296: real time    1.3350
    MIXING:  cpu time    0.0027: real time    0.0027
    --------------------------------------------
      LOOP:  cpu time   21.3972: real time   21.4854

 eigenvalue-minimisations  : 14480
 total energy-change (2. order) : 0.3002779E+02  (-0.3874158E+01)
 number of electron     680.0000185 magnetization      58.7353668
 augmentation part      357.0845660 magnetization      40.0835496

 Broyden mixing:
  rms(total) = 0.41650E+01    rms(broyden)= 0.41650E+01
  rms(prec ) = 0.47171E+01
  weight for this iteration     100.00

 eigenvalues of (default mixing * dielectric matrix)
  average eigenvalue GAMMA=   0.5020
  1.7581  0.5371  0.2544  0.2544  0.1256  0.0823

 Free energy of the ion-electron system (eV)
  ---------------------------------------------------
  alpha Z        PSCENC =      1732.79109506
  Ewald energy   TEWEN  =    446794.45875968
  -Hartree energ DENC   =   -511843.45340852
  -exchange      EXHF   =         0.00000000
  -V(xc)+E(xc)   XCENC  =      1405.73367272
  PAW double counting   =     63874.99482790   -66688.35463446
  entropy T*S    EENTRO =         0.00807426
  eigenvalues    EBANDS =     -4656.92892699
  atomic energy  EATOM  =     68915.17493688
  Solvation  Ediel_sol  =         0.00000000
  ---------------------------------------------------
  free energy    TOTEN  =      -465.57560348 eV

  energy without entropy =     -465.58367774  energy(sigma->0) =     -465.57762204


--------------------------------------------------------------------------------------------------------




--------------------------------------- Iteration      1(  12)  ---------------------------------------


    POTLOK:  cpu time    0.1232: real time    0.1240
    SETDIJ:  cpu time    0.0097: real time    0.0098
    EDDIAG:  cpu time    7.0559: real time    7.0830
  RMM-DIIS:  cpu time   10.0714: real time   10.1150
    ORTHCH:  cpu time    2.8485: real time    2.8595
       DOS:  cpu time    0.0052: real time    0.0052
    CHARGE:  cpu time    1.3306: real time    1.3363
    MIXING:  cpu time    0.0034: real time    0.0034
    --------------------------------------------
      LOOP:  cpu time   21.4481: real time   21.5363

 eigenvalue-minimisations  : 14582
 total energy-change (2. order) : 0.1382467E+02  (-0.1733886E+01)
 number of electron     680.0000171 magnetization      57.2324128
 augmentation part      348.6635172 magnetization      37.8889004

 Broyden mixing:
  rms(total) = 0.36872E+01    rms(broyden)= 0.36872E+01
  rms(prec ) = 0.42295E+01
  weight for this iteration     100.00

 eigenvalues of (default mixing * dielectric matrix)
  average eigenvalue GAMMA=   0.4803
  1.8224  0.4980  0.3413  0.3413  0.0817  0.1388  0.1388

 Free energy of the ion-electron system (eV)
  ---------------------------------------------------
  alpha Z        PSCENC =      1732.79109506
  Ewald energy   TEWEN  =    446794.45875968
  -Hartree energ DENC   =   -512091.24358146
  -exchange      EXHF   =         0.00000000
  -V(xc)+E(xc)   XCENC  =      1410.84313297
  PAW double counting   =     64684.16302589   -67523.60254191
  entropy T*S    EENTRO =         0.01220106
  eigenvalues    EBANDS =     -4374.34796333
  atomic energy  EATOM  =     68915.17493688
  Solvation  Ediel_sol  =         0.00000000
  ---------------------------------------------------
  free energy    TOTEN  =      -451.75093516 eV

  energy without entropy =     -451.76313622  energy(sigma->0) =     -451.75398543


--------------------------------------------------------------------------------------------------------




--------------------------------------- Iteration      1(  13)  ---------------------------------------


    POTLOK:  cpu time    0.1256: real time    0.1264
    SETDIJ:  cpu time    0.0098: real time    0.0098
    EDDIAG:  cpu time    7.0516: real time    7.0835
  RMM-DIIS:  cpu time   10.1668: real time   10.2077
    ORTHCH:  cpu time    2.8490: real time    2.8578
       DOS:  cpu time    0.0048: real time    0.0048
    CHARGE:  cpu time    1.3320: real time    1.3370
    MIXING:  cpu time    0.0036: real time    0.0037
    --------------------------------------------
      LOOP:  cpu time   21.5432: real time   21.6307

 eigenvalue-minimisations  : 14732
 total energy-change (2. order) : 0.8476182E+01  (-0.1029667E+01)
 number of electron     680.0000185 magnetization      55.7292562
 augmentation part      345.5277323 magnetization      36.2029113

 Broyden mixing:
  rms(total) = 0.26454E+01    rms(broyden)= 0.26454E+01
  rms(prec ) = 0.29308E+01
  weight for this iteration     100.00

 eigenvalues of (default mixing * dielectric matrix)
  average eigenvalue GAMMA=   0.4923
  1.9177  0.5980  0.5980  0.2792  0.1889  0.0819  0.1524  0.1225

 Free energy of the ion-electron system (eV)
  ---------------------------------------------------
  alpha Z        PSCENC =      1732.79109506
  Ewald energy   TEWEN  =    446794.45875968
  -Hartree energ DENC   =   -512178.38123556
  -exchange      EXHF   =         0.00000000
  -V(xc)+E(xc)   XCENC  =      1414.16872580
  PAW double counting   =     65153.48003334   -67998.93590471
  entropy T*S    EENTRO =         0.01068360
  eigenvalues    EBANDS =     -4276.04184745
  atomic energy  EATOM  =     68915.17493688
  Solvation  Ediel_sol  =         0.00000000
  ---------------------------------------------------
  free energy    TOTEN  =      -443.27475335 eV

  energy without entropy =     -443.28543695  energy(sigma->0) =     -443.27742425


--------------------------------------------------------------------------------------------------------




--------------------------------------- Iteration      1(  14)  ---------------------------------------


    POTLOK:  cpu time    0.1242: real time    0.1250
    SETDIJ:  cpu time    0.0094: real time    0.0094
    EDDIAG:  cpu time    7.0479: real time    7.0837
  RMM-DIIS:  cpu time   10.1001: real time   10.1555
    ORTHCH:  cpu time    2.8427: real time    2.8572
       DOS:  cpu time    0.0059: real time    0.0059
    CHARGE:  cpu time    1.3328: real time    1.3399
    MIXING:  cpu time    0.0037: real time    0.0038
    --------------------------------------------
      LOOP:  cpu time   21.4666: real time   21.5803

 eigenvalue-minimisations  : 14662
 total energy-change (2. order) : 0.3935230E+01  (-0.7100428E+00)
 number of electron     680.0000180 magnetization      53.7304913
 augmentation part      343.3687733 magnetization      33.8413820

 Broyden mixing:
  rms(total) = 0.20396E+01    rms(broyden)= 0.20395E+01
  rms(prec ) = 0.23011E+01
  weight for this iteration     100.00

 eigenvalues of (default mixing * dielectric matrix)
  average eigenvalue GAMMA=   0.5008
  2.0107  0.7174  0.7174  0.3179  0.2027  0.2027  0.0818  0.1281  0.1281

 Free energy of the ion-electron system (eV)
  ---------------------------------------------------
  alpha Z        PSCENC =      1732.79109506
  Ewald energy   TEWEN  =    446794.45875968
  -Hartree energ DENC   =   -512286.69720041
  -exchange      EXHF   =         0.00000000
  -V(xc)+E(xc)   XCENC  =      1416.41461214
  PAW double counting   =     65471.10545871   -68313.70933046
  entropy T*S    EENTRO =        -0.00229075
  eigenvalues    EBANDS =     -4168.87556443
  atomic energy  EATOM  =     68915.17493688
  Solvation  Ediel_sol  =         0.00000000
  ---------------------------------------------------
  free energy    TOTEN  =      -439.33952357 eV

  energy without entropy =     -439.33723283  energy(sigma->0) =     -439.33895089


--------------------------------------------------------------------------------------------------------




--------------------------------------- Iteration      1(  15)  ---------------------------------------


    POTLOK:  cpu time    0.1228: real time    0.1236
    SETDIJ:  cpu time    0.0098: real time    0.0098
    EDDIAG:  cpu time    7.0648: real time    7.0921
  RMM-DIIS:  cpu time   10.0411: real time   10.0847
    ORTHCH:  cpu time    2.8442: real time    2.8550
       DOS:  cpu time    0.0058: real time    0.0058
    CHARGE:  cpu time    1.3360: real time    1.3413
    MIXING:  cpu time    0.0038: real time    0.0038
    --------------------------------------------
      LOOP:  cpu time   21.4282: real time   21.5160

 eigenvalue-minimisations  : 14583
 total energy-change (2. order) : 0.2368008E+01  (-0.5508254E+00)
 number of electron     680.0000182 magnetization      51.9279915
 augmentation part      342.1518535 magnetization      31.2754296

 Broyden mixing:
  rms(total) = 0.20101E+01    rms(broyden)= 0.20100E+01
  rms(prec ) = 0.21902E+01
  weight for this iteration     100.00

 eigenvalues of (default mixing * dielectric matrix)
  average eigenvalue GAMMA=   0.4893
  2.0236  0.7203  0.7203  0.4902  0.2281  0.2281  0.0818  0.1395  0.1395  0.1219

 Free energy of the ion-electron system (eV)
  ---------------------------------------------------
  alpha Z        PSCENC =      1732.79109506
  Ewald energy   TEWEN  =    446794.45875968
  -Hartree energ DENC   =   -512388.90631404
  -exchange      EXHF   =         0.00000000
  -V(xc)+E(xc)   XCENC  =      1418.58828035
  PAW double counting   =     65710.68539105   -68539.48846116
  entropy T*S    EENTRO =         0.00884108
  eigenvalues    EBANDS =     -4080.28404473
  atomic energy  EATOM  =     68915.17493688
  Solvation  Ediel_sol  =         0.00000000
  ---------------------------------------------------
  free energy    TOTEN  =      -436.97151584 eV

  energy without entropy =     -436.98035692  energy(sigma->0) =     -436.97372611


--------------------------------------------------------------------------------------------------------




--------------------------------------- Iteration      1(  16)  ---------------------------------------


    POTLOK:  cpu time    0.1231: real time    0.1238
    SETDIJ:  cpu time    0.0095: real time    0.0096
    EDDIAG:  cpu time    7.0786: real time    7.1035
  RMM-DIIS:  cpu time   10.0473: real time   10.0876
    ORTHCH:  cpu time    2.8471: real time    2.8561
       DOS:  cpu time    0.0058: real time    0.0058
    CHARGE:  cpu time    1.3330: real time    1.3378
    MIXING:  cpu time    0.0039: real time    0.0042
    --------------------------------------------
      LOOP:  cpu time   21.4483: real time   21.5284

 eigenvalue-minimisations  : 14588
 total energy-change (2. order) : 0.2505521E+01  (-0.3557256E+00)
 number of electron     680.0000186 magnetization      50.3599789
 augmentation part      342.1567829 magnetization      29.1825277

 Broyden mixing:
  rms(total) = 0.16777E+01    rms(broyden)= 0.16777E+01
  rms(prec ) = 0.18005E+01
  weight for this iteration     100.00

 eigenvalues of (default mixing * dielectric matrix)
  average eigenvalue GAMMA=   0.4977
  1.9578  0.8171  0.8171  0.7271  0.2610  0.2610  0.0818  0.1521  0.1521  0.1238
  0.1238

 Free energy of the ion-electron system (eV)
  ---------------------------------------------------
  alpha Z        PSCENC =      1732.79109506
  Ewald energy   TEWEN  =    446794.45875968
  -Hartree energ DENC   =   -512481.01437789
  -exchange      EXHF   =         0.00000000
  -V(xc)+E(xc)   XCENC  =      1420.04963150
  PAW double counting   =     65838.21763058   -68653.76314431
  entropy T*S    EENTRO =         0.02310055
  eigenvalues    EBANDS =     -4000.40362674
  atomic energy  EATOM  =     68915.17493688
  Solvation  Ediel_sol  =         0.00000000
  ---------------------------------------------------
  free energy    TOTEN  =      -434.46599469 eV

  energy without entropy =     -434.48909524  energy(sigma->0) =     -434.47176983


--------------------------------------------------------------------------------------------------------




--------------------------------------- Iteration      1(  17)  ---------------------------------------


    POTLOK:  cpu time    0.1245: real time    0.1253
    SETDIJ:  cpu time    0.0096: real time    0.0096
    EDDIAG:  cpu time    7.0602: real time    7.0879
  RMM-DIIS:  cpu time   10.0430: real time   10.0861
    ORTHCH:  cpu time    2.8471: real time    2.8588
       DOS:  cpu time    0.0053: real time    0.0053
    CHARGE:  cpu time    1.3329: real time    1.3382
    MIXING:  cpu time    0.0042: real time    0.0042
    --------------------------------------------
      LOOP:  cpu time   21.4267: real time   21.5155

 eigenvalue-minimisations  : 14528
 total energy-change (2. order) : 0.6008600E+00  (-0.3576661E+00)
 number of electron     680.0000187 magnetization      46.1017026
 augmentation part      342.3932673 magnetization      25.0347767

 Broyden mixing:
  rms(total) = 0.15701E+01    rms(broyden)= 0.15701E+01
  rms(prec ) = 0.16740E+01
  weight for this iteration     100.00

 eigenvalues of (default mixing * dielectric matrix)
  average eigenvalue GAMMA=   0.5248
  1.8743  1.2860  0.8411  0.8411  0.4043  0.2489  0.1901  0.0818  0.1583  0.1304
  0.1304  0.1115

 Free energy of the ion-electron system (eV)
  ---------------------------------------------------
  alpha Z        PSCENC =      1732.79109506
  Ewald energy   TEWEN  =    446794.45875968
  -Hartree energ DENC   =   -512561.58054363
  -exchange      EXHF   =         0.00000000
  -V(xc)+E(xc)   XCENC  =      1420.61582184
  PAW double counting   =     65893.90751330   -68701.09233297
  entropy T*S    EENTRO =         0.01892185
  eigenvalues    EBANDS =     -3928.15930669
  atomic energy  EATOM  =     68915.17493688
  Solvation  Ediel_sol  =         0.00000000
  ---------------------------------------------------
  free energy    TOTEN  =      -433.86513468 eV

  energy without entropy =     -433.88405653  energy(sigma->0) =     -433.86986514


--------------------------------------------------------------------------------------------------------




--------------------------------------- Iteration      1(  18)  ---------------------------------------


    POTLOK:  cpu time    0.1231: real time    0.1240
    SETDIJ:  cpu time    0.0094: real time    0.0097
    EDDIAG:  cpu time    7.0572: real time    7.0850
  RMM-DIIS:  cpu time    9.9606: real time   10.0038
    ORTHCH:  cpu time    2.8443: real time    2.8559
[...]
    FORCOR:  cpu time    0.1316: real time    0.1323
    FORHAR:  cpu time    0.0289: real time    0.0290
    MIXING:  cpu time    0.0126: real time    0.0126
    OFIELD:  cpu time    0.0001: real time    0.0001

  FORCE on cell =-STRESS in cart. coord.  units (eV):
  Direction    XX          YY          ZZ          XY          YZ          ZX
  --------------------------------------------------------------------------------------
  Alpha Z  1732.79110  1732.79110  1732.79110
  Ewald  485732.17199485623.81704************  -195.37970   204.51653   -67.72806
  Hartree501399.12833501254.18874************  -255.22778   189.33465   -55.72880
  E(xc)   -3585.32191 -3586.28384 -3594.58874     0.56094     0.51713    -0.01068
  Local  ************************************   453.15847  -391.15049   121.99299
  n-local -2009.48032 -1996.44337 -2007.21707     4.87423     0.88493    -0.49696
  augment  2914.24132  2910.42581  2940.29119    -1.98894    -1.86056     0.63922
  Kinetic  6591.83048  6586.29099  6615.90026    -4.94355    -2.31557     1.31353
  Fock        0.00000     0.00000     0.00000     0.00000     0.00000     0.00000
  -------------------------------------------------------------------------------------
  Total     -22.24511    -4.92865    -0.27952     1.05367    -0.07338    -0.01879
  in kB     -12.12730    -2.68694    -0.15238     0.57443    -0.04001    -0.01024
  external pressure =       -4.99 kB  Pullay stress =        0.00 kB


 VOLUME and BASIS-vectors are now :
 -----------------------------------------------------------------------------
  energy-cutoff  :      600.00
  volume of cell :     2938.87
      direct lattice vectors                 reciprocal lattice vectors
     7.778498173  0.000000000  0.000000000     0.128559521  0.000000000  0.000000000
     0.000000000 13.137704849  0.000000000     0.000000000  0.076116796  0.000000000
     0.000000000  0.000000000 28.758470535     0.000000000  0.000000000  0.034772364

  length of vectors
     7.778498173 13.137704849 28.758470535     0.128559521  0.076116796  0.034772364


 FORCES acting on ions
    electron-ion (+dipol)            ewald-force                    non-local-force                 convergence-correction
 -----------------------------------------------------------------------------------------------
   -.250E+03 -.265E+03 -.310E+04   0.250E+03 0.265E+03 0.310E+04   0.221E+00 0.110E+00 0.296E+00   -.174E-01 0.246E-01 0.266E-02
   -.220E+02 0.246E+03 -.323E+04   0.224E+02 -.246E+03 0.323E+04   -.417E+00 -.411E+00 -.225E+01   -.589E-02 -.291E-01 0.598E-02
   -.218E+02 0.189E+03 -.116E+04   0.219E+02 -.188E+03 0.116E+04   -.106E+00 -.744E+00 0.405E+00   0.628E-02 -.326E-01 0.452E-01
   -.350E+02 -.586E+02 -.102E+04   0.346E+02 0.579E+02 0.102E+04   0.368E+00 0.750E+00 -.303E+00   0.124E-01 -.148E-01 0.148E-01
   0.397E+02 -.123E+02 0.836E+03   -.391E+02 0.118E+02 -.837E+03   -.553E+00 0.544E+00 0.498E+00   0.693E-02 -.328E-01 0.483E-01
   -.472E+02 -.118E+03 -.312E+04   0.481E+02 0.118E+03 0.312E+04   -.941E+00 -.826E+00 0.496E-01   -.342E-02 -.129E-02 -.616E-02
   -.350E+02 0.496E+02 0.104E+04   0.349E+02 -.496E+02 -.104E+04   0.124E+00 0.429E-01 -.223E-01   0.874E-02 -.150E-02 0.260E-02
   0.793E+02 -.839E+02 -.109E+04   -.785E+02 0.827E+02 0.109E+04   -.830E+00 0.113E+01 0.480E+00   0.672E-02 -.164E-03 0.326E-02
   0.222E+02 -.897E+02 0.321E+04   -.214E+02 0.903E+02 -.321E+04   -.806E+00 -.617E+00 0.200E+00   -.480E-02 0.124E-01 -.159E-02
   -.153E+03 -.139E+03 -.100E+04   0.152E+03 0.139E+03 0.100E+04   0.551E+00 0.359E+00 0.598E+00   -.251E-01 0.122E-01 0.515E-02
   -.654E+02 -.144E+02 -.323E+04   0.658E+02 0.133E+02 0.323E+04   -.445E+00 0.111E+01 -.461E+00   0.125E-01 0.905E-02 0.290E-02
   0.839E+01 -.146E+03 0.106E+04   -.844E+01 0.145E+03 -.106E+04   0.444E-02 0.380E+00 -.212E+00   0.121E-01 -.145E-01 0.720E-02
   0.366E+02 0.147E+03 -.119E+04   -.363E+02 -.146E+03 0.119E+04   -.344E+00 -.102E+01 0.111E+01   -.814E-03 -.188E-01 0.343E-01
   0.313E+01 0.233E+03 -.324E+04   -.331E+01 -.234E+03 0.324E+04   0.181E+00 0.821E+00 -.105E+01   0.584E-02 -.421E-01 0.897E-02
   0.559E+00 0.650E+02 0.975E+03   -.363E+00 -.649E+02 -.975E+03   -.178E+00 -.437E-01 -.129E+00   0.661E-02 0.169E-01 0.213E-01
   0.694E+02 -.127E+03 -.312E+04   -.685E+02 0.129E+03 0.312E+04   -.907E+00 -.246E+01 -.114E+00   0.352E-01 0.150E-01 0.245E-02
   -.326E+02 -.531E+02 -.114E+04   0.326E+02 0.526E+02 0.114E+04   -.656E-01 0.383E+00 0.154E+00   0.242E-01 0.392E-01 0.206E-01
   -.113E+02 -.452E+02 0.724E+03   0.112E+02 0.452E+02 -.725E+03   0.698E-01 -.323E-01 0.545E+00   -.471E-02 -.249E-01 0.254E-01
   0.114E+02 -.496E+02 0.314E+04   -.114E+02 0.500E+02 -.314E+04   0.106E-01 -.453E+00 -.557E+00   -.707E-02 0.905E-02 0.100E-01
   -.450E+02 0.119E+03 0.315E+04   0.453E+02 -.118E+03 -.315E+04   -.250E+00 -.105E+01 0.192E+01   0.142E-01 0.737E-02 -.976E-02
   -.549E+02 -.796E+01 0.884E+03   0.544E+02 0.769E+01 -.885E+03   0.525E+00 0.316E+00 0.852E+00   0.850E-02 -.464E-01 0.418E-01
   0.225E+02 0.219E+02 0.974E+03   -.229E+02 -.222E+02 -.973E+03   0.625E+00 0.307E+00 -.426E+00   -.236E-01 0.122E-01 0.822E-02
   0.238E+03 0.405E+02 -.318E+04   -.238E+03 -.405E+02 0.318E+04   -.325E+00 -.794E-01 0.895E+00   0.198E-01 0.648E-01 0.188E-01
   0.187E+03 0.128E+03 -.324E+04   -.187E+03 -.128E+03 0.324E+04   0.250E+00 -.469E+00 0.685E+00   0.222E-02 0.228E-01 0.248E-02
   0.187E+03 0.759E+02 -.108E+04   -.187E+03 -.752E+02 0.108E+04   -.359E-01 -.696E+00 -.284E+00   0.292E-01 0.122E-01 -.841E-02
   0.195E+03 0.664E+02 -.142E+04   -.194E+03 -.660E+02 0.142E+04   -.599E+00 -.398E+00 -.886E+00   -.900E-02 0.525E-01 0.117E-01
   -.162E+03 -.634E+02 -.136E+04   0.162E+03 0.642E+02 0.136E+04   0.486E+00 -.873E+00 0.186E+00   -.180E-01 0.262E-01 0.160E-01
   0.173E+02 -.397E+02 0.112E+04   -.171E+02 0.399E+02 -.112E+04   -.178E+00 -.223E+00 -.124E+01   -.243E-01 0.217E-01 0.202E-01
   0.156E+02 -.557E+02 0.900E+03   -.168E+02 0.570E+02 -.899E+03   0.118E+01 -.139E+01 -.399E+00   0.111E-02 -.771E-02 0.275E-01
   0.216E+01 -.421E+02 0.313E+04   -.188E+01 0.421E+02 -.313E+04   -.235E+00 0.214E-02 0.744E+00   0.115E-01 -.104E-01 -.695E-03
   -.106E+03 -.238E+03 -.317E+04   0.107E+03 0.239E+03 0.317E+04   -.137E+00 -.131E+00 -.179E+01   -.604E-02 -.109E-01 0.775E-02
   0.307E+02 -.611E+02 0.315E+04   -.310E+02 0.612E+02 -.315E+04   0.300E+00 -.666E-01 -.915E+00   -.381E-02 -.567E-01 -.533E-02
   0.384E+02 0.209E+01 -.118E+04   -.384E+02 -.278E+01 0.118E+04   0.863E-01 0.710E+00 0.186E+01   0.373E-02 -.152E-01 0.361E-01
   -.568E+02 -.264E+02 0.105E+04   0.565E+02 0.260E+02 -.105E+04   0.406E+00 0.345E+00 -.543E-01   -.307E-01 0.395E-01 0.429E-01
   -.772E+02 -.176E+02 -.983E+03   0.773E+02 0.177E+02 0.983E+03   -.164E+00 -.123E+00 -.331E+00   0.132E-01 0.179E-01 0.158E-03
   -.264E+02 -.111E+03 0.325E+04   0.256E+02 0.111E+03 -.325E+04   0.788E+00 -.919E-01 0.168E+01   0.110E-01 -.397E-02 -.586E-02
   0.560E+02 0.131E+03 0.318E+04   -.557E+02 -.132E+03 -.318E+04   -.358E+00 0.744E+00 0.878E+00   0.289E-02 0.229E-01 -.365E-02
   -.152E+02 0.158E+03 -.117E+04   0.152E+02 -.157E+03 0.117E+04   0.320E-01 -.120E+01 0.118E+01   -.550E-02 -.148E-01 0.400E-01
   0.643E+02 0.116E+03 -.322E+04   -.657E+02 -.117E+03 0.323E+04   0.143E+01 0.131E+01 -.237E+01   -.140E-01 -.187E-01 0.498E-02
   0.324E+02 -.616E+02 0.319E+04   -.325E+02 0.614E+02 -.319E+04   0.101E+00 0.152E+00 -.655E+00   -.107E-01 0.434E-01 0.141E-01
   0.537E+02 0.144E+03 0.313E+04   -.536E+02 -.145E+03 -.313E+04   -.438E-01 0.773E+00 0.627E+00   -.671E-02 0.658E-02 0.333E-02
   0.110E+03 -.579E+02 0.102E+04   -.109E+03 0.577E+02 -.102E+04   -.579E+00 0.200E+00 -.480E+00   0.235E-01 0.212E-01 0.292E-01
   -.243E+01 -.677E+02 0.936E+03   0.358E+01 0.681E+02 -.935E+03   -.113E+01 -.375E+00 -.898E+00   0.432E-02 -.184E-01 0.157E-01
   -.245E+03 -.941E+02 -.319E+04   0.244E+03 0.939E+02 0.319E+04   0.678E+00 0.131E+00 0.106E+01   0.140E-01 0.473E-01 0.365E-02
   -.680E+02 0.641E+02 0.944E+03   0.679E+02 -.646E+02 -.944E+03   -.128E+00 0.422E+00 0.209E+00   0.772E-02 -.210E-02 -.200E-01
   0.175E+02 0.101E+02 0.319E+04   -.175E+02 -.941E+01 -.319E+04   -.161E-01 -.618E+00 -.886E+00   -.167E-01 -.305E-01 -.112E-01
   -.451E+02 -.640E+02 0.313E+04   0.452E+02 0.639E+02 -.313E+04   -.163E+00 0.123E+00 -.637E+00   -.300E-02 -.429E-01 0.701E-02
   0.163E+02 0.487E+02 0.965E+03   -.162E+02 -.476E+02 -.964E+03   -.813E-01 -.112E+01 -.116E+01   -.149E-01 -.288E-01 0.413E-01
   -.458E+02 0.184E+02 -.991E+03   0.456E+02 -.181E+02 0.992E+03   0.203E+00 -.362E+00 -.640E-01   -.210E-01 0.586E-02 0.155E-01
   -.244E+02 -.123E+03 0.312E+04   0.243E+02 0.123E+03 -.312E+04   0.225E-01 -.164E-01 0.129E+00   0.524E-02 -.249E-01 -.118E-01
   0.113E+03 -.120E+03 -.955E+03   -.113E+03 0.120E+03 0.955E+03   -.363E+00 -.279E-01 -.369E-01   0.121E-01 -.168E-01 -.134E-01
   -.602E+02 -.431E+02 0.316E+04   0.612E+02 0.422E+02 -.316E+04   -.946E+00 0.866E+00 -.512E+00   -.915E-02 0.410E-01 -.507E-02
   -.606E+00 0.461E+02 0.861E+03   -.265E+00 -.454E+02 -.862E+03   0.851E+00 -.675E+00 0.671E+00   -.229E-01 0.318E-01 0.712E-02
   0.198E+03 -.181E+03 -.435E+04   -.198E+03 0.181E+03 0.434E+04   -.150E+00 -.845E+00 0.586E+01   0.109E-01 -.418E-01 -.551E-03
   -.184E+02 0.815E+02 0.412E+04   0.186E+02 -.816E+02 -.412E+04   -.203E+00 0.821E-01 -.471E+01   0.445E-02 0.931E-02 -.174E-01
   -.699E+02 0.708E+02 -.427E+04   0.696E+02 -.708E+02 0.427E+04   0.302E+00 0.152E-01 0.503E+01   -.320E-02 -.439E-01 0.568E-02
   -.322E+02 0.179E+03 0.442E+04   0.329E+02 -.180E+03 -.442E+04   -.744E+00 0.327E+00 -.650E+01   -.449E-02 0.721E-02 -.752E-02
   -.149E+02 0.904E+02 -.420E+04   0.151E+02 -.906E+02 0.420E+04   -.203E+00 0.271E+00 0.410E+01   0.158E-01 -.401E-01 0.822E-02
   -.801E+01 0.137E+03 0.131E+04   0.814E+01 -.137E+03 -.131E+04   -.242E+00 0.298E+00 0.743E+00   0.186E-01 0.313E-01 -.679E-02
   0.839E+02 -.127E+03 -.185E+04   -.829E+02 0.125E+03 0.184E+04   -.944E+00 0.142E+01 0.360E+01   -.104E-01 0.757E-02 0.985E-02
   0.259E+02 -.122E+03 -.675E+03   -.257E+02 0.122E+03 0.676E+03   -.142E+00 -.494E+00 -.924E+00   0.805E-02 -.163E-01 -.175E-02
   -.837E+02 0.392E+02 -.774E+03   0.844E+02 -.395E+02 0.774E+03   -.763E+00 0.290E+00 -.397E+00   0.833E-03 -.177E-01 0.265E-01
   0.124E+02 -.274E+02 0.186E+04   -.121E+02 0.275E+02 -.186E+04   -.273E+00 -.829E-01 -.275E+01   0.483E-02 -.257E-01 -.133E-02
   0.642E+02 0.661E+02 -.804E+03   -.650E+02 -.665E+02 0.805E+03   0.724E+00 0.362E+00 -.450E+00   -.313E-02 -.730E-02 0.188E-01
   -.744E+02 0.908E+02 -.189E+04   0.734E+02 -.891E+02 0.189E+04   0.965E+00 -.165E+01 0.374E+01   -.829E-02 0.642E-02 0.791E-03
   0.164E+02 0.576E+02 -.188E+04   -.164E+02 -.574E+02 0.188E+04   -.309E-01 -.133E+00 0.230E+01   0.454E-03 -.195E-01 0.588E-02
   0.304E+02 0.452E+02 0.691E+03   -.307E+02 -.452E+02 -.692E+03   0.333E+00 -.117E+00 0.849E+00   0.933E-02 -.142E-02 0.121E-02
   -.681E+02 -.101E+02 -.728E+03   0.681E+02 0.960E+01 0.727E+03   0.314E-02 0.476E+00 0.114E+00   -.241E-01 0.141E-01 0.651E-02
   0.248E+02 0.119E+02 0.188E+04   -.250E+02 -.115E+02 -.188E+04   0.139E+00 -.375E+00 -.345E+01   0.121E-01 0.174E-01 0.653E-04
   -.823E+01 -.241E+01 0.188E+04   0.771E+01 0.259E+01 -.187E+04   0.551E+00 -.102E+00 -.262E+01   -.101E-01 0.983E-02 0.479E-02
   -.345E+02 -.223E+02 0.617E+03   0.347E+02 0.225E+02 -.617E+03   -.206E+00 -.111E+00 0.604E+00   0.437E-02 0.686E-02 0.223E-01
 -----------------------------------------------------------------------------------------------
   0.269E+01 0.502E+01 -.467E+01   -.128E-12 -.458E-12 -.227E-12   -.272E+01 -.492E+01 0.395E+01   0.386E-01 -.298E-01 0.649E+00
 
 
 POSITION                                       TOTAL-FORCE (eV/Angst)
 -----------------------------------------------------------------------------------
      0.12125      6.28312      6.84545         0.005623      0.000277      0.004902
      1.46724     12.77213      7.10354        -0.002695     -0.000066     -0.000812
      0.13424      0.35850      5.03482        -0.000350     -0.007544     -0.002266
      1.36773      2.57577      4.96528         0.001777     -0.000778      0.001771
      1.40377     12.82542      2.92755        -0.001671      0.000279      0.000437
      6.71470      4.13316      6.87005         0.003590      0.000352      0.002160
      1.41457      4.06383      2.79719         0.024260     -0.019766     -0.037195
      4.05364      2.58521      4.95407         0.001734     -0.003147     -0.000412
      5.38075      9.24278      0.71169         0.004455     -0.029758      0.004908
      0.15552      4.74396      4.85335        -0.001666     -0.001364      0.004593
      5.30765     10.53883      7.03854         0.000556      0.004952      0.001431
      4.02729      3.93666      2.80194        -0.035619     -0.006182      0.014747
      2.74182      0.41337      4.96698         0.000855      0.004499     -0.004284
      6.59768     12.70763      7.10604        -0.000925      0.001270      0.002164
      6.60979      8.41264      2.76411         0.023995      0.053926     -0.060166
      5.36741      6.33166      6.85075        -0.000990     -0.008744     -0.001424
      5.35363      9.11415      4.86579         0.003602     -0.001137     -0.002960
      0.13172     10.63547      2.91130         0.000137      0.000472      0.001160
      0.14422      9.22923      0.79266        -0.005066      0.001628     -0.013457
      2.77871      4.70328      0.72574         0.027525      0.002871      0.013390
      6.60815     12.80362      2.88752        -0.001519      0.000567     -0.000319
      0.11461      6.18628      2.75108         0.141348      0.095896      0.084583
      4.09024      8.40725      6.87819        -0.001620     -0.004095     -0.006563
      2.75873     10.52518      7.05150         0.000638     -0.003530     -0.004111
      4.05789      6.92270      4.84641        -0.001524      0.002794     -0.002020
      2.66842      9.07347      5.00211         0.002182     -0.000139      0.000400
      0.11713      9.08925      4.92124         0.000686      0.002185     -0.000427
      6.63818      3.96691      2.81648        -0.051139     -0.011033     -0.010287
      2.65531     10.63517      2.83430         0.032944     -0.095581     -0.048546
      2.66192      0.32919      0.88456         0.059579      0.017070     -0.059279
      1.40712      4.13084      7.02949         0.000606     -0.000581      0.002104
      6.60150     11.37216      0.82930         0.017075      0.011960      0.014281
      4.02133     11.22711      4.87362        -0.003155     -0.000611      0.007111
      5.32098      1.83034      2.83911         0.009060     -0.063202      0.045442
      6.61535      6.94277      4.79904         0.002781     -0.000438      0.000850
      2.70894      9.20606      0.66071         0.008855     -0.005416     -0.010257
      0.11363      4.68562      0.72988        -0.024796     -0.005239     -0.023280
      5.31398      0.39685      4.94959        -0.001045     -0.001337      0.000077
      5.29158      1.79738      7.00235         0.001622     -0.002955      0.008649
      4.01180      2.43913      0.81050        -0.012194      0.000096     -0.011314
      6.62988      7.02267      0.69623         0.062962     -0.014165     -0.002667
      2.71109      1.83649      2.87420        -0.000949     -0.003137      0.001464
      5.38517     10.60422      2.82717         0.029317      0.018964     -0.070043
      6.61204      8.41672      6.87050         0.008091     -0.000590     -0.002395
      2.75075      6.21700      2.72905        -0.201095     -0.017333      0.103608
      5.29931      0.33988      0.82306         0.018151      0.020072      0.045568
      1.44012     11.34383      0.85416        -0.004411     -0.010535     -0.069928
      4.02442     12.81005      2.88093        -0.002168      0.002105     -0.003504
      6.56468      2.57040      4.93689         0.000111     -0.001113      0.001928
      0.16465      0.33401      0.83661        -0.031997      0.009698     -0.044142
      5.34416      4.72752      4.88369         0.000541     -0.002391      0.000144
      6.65773      2.46519      0.77459         0.000690     -0.010367     -0.000146
      1.38750      8.46756      2.77258        -0.043275      0.033441      0.003271
      4.28842      4.23344      7.26189         0.006723      0.002711     -0.002292
      1.37429      6.93127      0.68822         0.001297     -0.038286      0.010411
      7.73464      1.85655      7.09916         0.000382     -0.001468      0.003083
      4.17387      7.03491      0.25378        -0.067787     -0.045958     -0.021768
      2.74430      1.96593      7.05747        -0.000698     -0.004184      0.006895
      3.95023      8.52327      2.74364        -0.087118      0.165252      0.249939
      2.64410      6.35238      6.92695         0.004964      0.000139     -0.001094
      2.76361      4.66940      4.91179        -0.000054     -0.001460     -0.005617
      6.53513     11.34706      4.98717        -0.002956      0.004704      0.002495
      4.04507     11.36964      0.92515         0.037862     -0.027398     -0.037675
      1.50447     11.33061      5.00857         0.000014     -0.000594     -0.005709
      0.14297     10.52662      7.00109        -0.003664     -0.000554      0.003285
      4.04377     12.63259      6.87435        -0.000020     -0.002887      0.000513
      5.32598      6.17665      2.70407         0.033602     -0.100208     -0.095440
      1.38569      6.98270      4.79500         0.000683      0.003556     -0.001335
      1.46838      2.54604      0.81071        -0.011942      0.007434      0.010883
      5.32330      4.58808      0.74783         0.023629      0.086123      0.007854
      0.10800      1.80135      2.89508        -0.000391     -0.000023     -0.003362
 -----------------------------------------------------------------------------------
    total drift:                                0.014310      0.070428     -0.067200


--------------------------------------------------------------------------------------------------------



  FREE ENERGIE OF THE ION-ELECTRON SYSTEM (eV)
  ---------------------------------------------------
  free  energy   TOTEN  =      -487.09041943 eV

  energy  without entropy=     -487.06934210  energy(sigma->0) =     -487.08515010
 


--------------------------------------------------------------------------------------------------------


    POTLOK:  cpu time    0.1337: real time    0.1342


--------------------------------------------------------------------------------------------------------




--------------------------------------------------------------------------------------------------------


  
 reached required accuracy - stopping structural energy minimisation
     LOOP+:  cpu time 1401.2602: real time 1407.0877
    4ORBIT:  cpu time    0.0000: real time    0.0000

 total amount of memory used by VASP MPI-rank0   246285. kBytes
=======================================================================

   base      :      30000. kBytes
   nonlr-proj:       7215. kBytes
   fftplans  :       5432. kBytes
   grid      :      14801. kBytes
   one-center:        155. kBytes
   wavefun   :     188682. kBytes
 
  
  
 General timing and accounting informations for this job:
 ========================================================
  
                  Total CPU time used (sec):     1452.751
                            User time (sec):     1349.264
                          System time (sec):      103.487
                         Elapsed time (sec):     1459.558
  
                   Maximum memory used (kb):      455108.
                   Average memory used (kb):           0.
  
                          Minor page faults:       267818
                          Major page faults:           31
                 Voluntary context switches:        10794
