 vasp.5.4.1 05Feb16 (build Mar 19 2020 08:54:17) complex                        
  
 executed on           IFC91_ompi date 2022.03.08  13:18:48
 running on   96 total cores
 distrk:  each k-point on   96 cores,    1 groups
 distr:  one band on NCORES_PER_BAND=  24 cores,    4 groups


--------------------------------------------------------------------------------------------------------


 INCAR:
 POTCAR:   PAW_PBE Ni 06Sep2000                   
 POTCAR:    PAW_PBE Nb_sv 25May2007               
 POTCAR:    PAW_PBE W 08Apr2002                   

 ----------------------------------------------------------------------------- 
|                                                                             |
|           W    W    AA    RRRRR   N    N  II  N    N   GGGG   !!!           |
|           W    W   A  A   R    R  NN   N  II  NN   N  G    G  !!!           |
|           W    W  A    A  R    R  N N  N  II  N N  N  G       !!!           |
|           W WW W  AAAAAA  RRRRR   N  N N  II  N  N N  G  GGG   !            |
|           WW  WW  A    A  R   R   N   NN  II  N   NN  G    G                |
|           W    W  A    A  R    R  N    N  II  N    N   GGGG   !!!           |
|                                                                             |
|      For optimal performance we recommend to set                            |
|        NCORE= 4 - approx SQRT( number of cores)                             |
|      NCORE specifies how many cores store one orbital (NPAR=cpu/NCORE).     |
|      This setting can  greatly improve the performance of VASP for DFT.     |
|      The default, NPAR=number of cores might be grossly inefficient         |
|      on modern multi-core architectures or massively parallel machines.     |
|      Do your own testing !!!!                                               |
|      Unfortunately you need to use the default for GW and RPA calculations. |
|      (for HF NCORE is supported but not extensively tested yet)             |
|                                                                             |
 ----------------------------------------------------------------------------- 

 POTCAR:   PAW_PBE Ni 06Sep2000                   
   VRHFIN =Ni:                                                                  
   LEXCH  = PE                                                                  
   EATOM  =  1077.9025 eV,   79.2236 Ry                                         
                                                                                
   TITEL  = PAW_PBE Ni 06Sep2000                                                
   LULTRA =        F    use ultrasoft PP ?                                      
   IUNSCR =        1    unscreen: 0-lin 1-nonlin 2-no                           
   RPACOR =    2.000    partial core radius                                     
   POMASS =   58.690; ZVAL   =   10.000    mass and valenz                      
   RCORE  =    2.300    outmost cutoff radius                                   
   RWIGS  =    2.430; RWIGS  =    1.286    wigner-seitz radius (au A)           
   ENMAX  =  269.533; ENMIN  =  202.150 eV                                      
   RCLOC  =    1.681    cutoff for local pot                                    
   LCOR   =        T    correct aug charges                                     
   LPAW   =        T    paw PP                                                  
   EAUG   =  544.565                                                            
   DEXC   =    -.009                                                            
   RMAX   =    2.808    core radius for proj-oper                               
   RAUG   =    1.300    factor for augmentation sphere                          
   RDEP   =    2.390    radius for radial grids                                 
   QCUT   =   -4.451; QGAM   =    8.902    optimization parameters              
                                                                                
   Description                                                                  
     l     E      TYP  RCUT    TYP  RCUT                                        
     2   .000     23  2.300                                                     
     2   .000     23  2.300                                                     
     0   .000     23  2.300                                                     
     0   .000     23  2.300                                                     
     1  -.200     23  2.300                                                     
     1   .000     23  2.300                                                     
     3   .000      7   .000                                                     
  local pseudopotential read in
  partial core-charges read in
  atomic valenz-charges read in
  non local Contribution for L=           2  read in
    real space projection operators read in
  non local Contribution for L=           2  read in
    real space projection operators read in
  non local Contribution for L=           0  read in
    real space projection operators read in
  non local Contribution for L=           0  read in
    real space projection operators read in
  non local Contribution for L=           1  read in
    real space projection operators read in
  non local Contribution for L=           1  read in
    real space projection operators read in
    PAW grid and wavefunctions read in
 
   number of l-projection  operators is LMAX  =           6
   number of lm-projection operators is LMMAX =          18
 
 POTCAR:    PAW_PBE Nb_sv 25May2007               
   VRHFIN =Nb: 4p5s4d                                                           
   LEXCH  = PE                                                                  
   EATOM  =  1555.1913 eV,  114.3033 Ry                                         
                                                                                
   TITEL  = PAW_PBE Nb_sv 25May2007                                             
   LULTRA =        F    use ultrasoft PP ?                                      
   IUNSCR =        1    unscreen: 0-lin 1-nonlin 2-no                           
   RPACOR =    1.800    partial core radius                                     
   POMASS =   92.910; ZVAL   =   13.000    mass and valenz                      
   RCORE  =    2.400    outmost cutoff radius                                   
   RWIGS  =    2.400; RWIGS  =    1.270    wigner-seitz radius (au A)           
   ENMAX  =  293.235; ENMIN  =  219.927 eV                                      
   ICORE  =        3    local potential                                         
   LCOR   =        T    correct aug charges                                     
   LPAW   =        T    paw PP                                                  
   EAUG   =  455.659                                                            
   DEXC   =    0.000                                                            
   RMAX   =    2.456    core radius for proj-oper                               
   RAUG   =    1.300    factor for augmentation sphere                          
   RDEP   =    2.451    radius for radial grids                                 
   RDEPT  =    1.956    core radius for aug-charge                              
                                                                                
   Atomic configuration                                                         
   11 entries                                                                   
     n  l   j            E        occ.                                          
     1  0  0.50    -18805.2457   2.0000                                         
     2  0  0.50     -2630.2869   2.0000                                         
     2  1  1.50     -2348.4046   6.0000                                         
     3  0  0.50      -438.8757   2.0000                                         
     3  1  1.50      -346.7588   6.0000                                         
     3  2  2.50      -196.2560  10.0000                                         
     4  0  0.50       -58.3859   2.0000                                         
     5  0  0.50        -3.9816   1.0000                                         
     4  1  1.50       -34.5141   6.0000                                         
     4  2  2.50        -3.0408   4.0000                                         
     4  3  2.50        -1.3606   0.0000                                         
   Description                                                                  
     l       E           TYP  RCUT    TYP  RCUT                                 
     0    -58.3859094     23  2.200                                             
     0     -3.9816262     23  2.200                                             
     1    -34.5140738     23  2.200                                             
     1     13.6058260     23  2.200                                             
     2     -3.0408010     23  2.200                                             
     2     -0.1283038     23  2.200                                             
     3     -1.3605826     23  2.400                                             
  local pseudopotential read in
  partial core-charges read in
  partial kinetic energy density read in
  atomic valenz-charges read in
  non local Contribution for L=           0  read in
    real space projection operators read in
  non local Contribution for L=           0  read in
    real space projection operators read in
  non local Contribution for L=           1  read in
    real space projection operators read in
  non local Contribution for L=           1  read in
    real space projection operators read in
  non local Contribution for L=           2  read in
    real space projection operators read in
  non local Contribution for L=           2  read in
    real space projection operators read in
    PAW grid and wavefunctions read in
 
   number of l-projection  operators is LMAX  =           6
   number of lm-projection operators is LMMAX =          18
 
 POTCAR:    PAW_PBE W 08Apr2002                   
   VRHFIN =W : 6s5d                                                             
   LEXCH  = PE                                                                  
   EATOM  =   204.6103 eV,   15.0384 Ry                                         
                                                                                
   TITEL  = PAW_PBE W 08Apr2002                                                 
   LULTRA =        F    use ultrasoft PP ?                                      
   IUNSCR =        1    unscreen: 0-lin 1-nonlin 2-no                           
   RPACOR =    2.330    partial core radius                                     
   POMASS =  183.850; ZVAL   =    6.000    mass and valenz                      
   RCORE  =    2.750    outmost cutoff radius                                   
   RWIGS  =    2.750; RWIGS  =    1.455    wigner-seitz radius (au A)           
   ENMAX  =  223.057; ENMIN  =  167.293 eV                                      
   RCLOC  =    2.147    cutoff for local pot                                    
   LCOR   =        T    correct aug charges                                     
   LPAW   =        T    paw PP                                                  
   EAUG   =  373.438                                                            
   DEXC   =    0.000                                                            
   RMAX   =    2.801    core radius for proj-oper                               
   RAUG   =    1.300    factor for augmentation sphere                          
   RDEP   =    2.886    radius for radial grids                                 
   RDEPT  =    2.230    core radius for aug-charge                              
                                                                                
   Atomic configuration                                                         
   16 entries                                                                   
     n  l   j            E        occ.                                          
     1  0  0.50    -69465.5836   2.0000                                         
     2  0  0.50    -11986.2642   2.0000                                         
     2  1  1.50    -10479.8616   6.0000                                         
     3  0  0.50     -2759.0758   2.0000                                         
     3  1  1.50     -2313.1857   6.0000                                         
     3  2  2.50     -1801.1185  10.0000                                         
     4  0  0.50      -567.6791   2.0000                                         
     4  1  1.50      -421.4694   6.0000                                         
     4  2  2.50      -236.3473  10.0000                                         
     4  3  3.50       -31.2666  14.0000                                         
     5  0  0.50       -77.1085   2.0000                                         
     5  1  1.50       -41.3856   6.0000                                         
     5  2  2.50        -3.3185   5.0000                                         
     6  0  0.50        -5.1438   1.0000                                         
     6  1  0.50        -3.8096   0.0000                                         
     5  3  2.50        -1.3606   0.0000                                         
   Description                                                                  
     l       E           TYP  RCUT    TYP  RCUT                                 
     2     -3.3185288     23  2.500                                             
     2     -1.5965414     23  2.500                                             
     0     -5.1438054     23  2.500                                             
     0      4.9117504     23  2.500                                             
     1      2.7211652     23  2.750                                             
     1     27.2116520     23  2.750                                             
  local pseudopotential read in
  partial core-charges read in
  partial kinetic energy density read in
  atomic valenz-charges read in
  non local Contribution for L=           2  read in
    real space projection operators read in
  non local Contribution for L=           2  read in
    real space projection operators read in
  non local Contribution for L=           0  read in
    real space projection operators read in
  non local Contribution for L=           0  read in
    real space projection operators read in
  non local Contribution for L=           1  read in
    real space projection operators read in
  non local Contribution for L=           1  read in
    real space projection operators read in
    PAW grid and wavefunctions read in
 
   number of l-projection  operators is LMAX  =           6
   number of lm-projection operators is LMMAX =          18
 
 Optimization of the real space projectors (new method)

 maximal supplied QI-value         = 16.25
 optimisation between [QCUT,QGAM] = [ 10.73, 21.61] = [ 32.22,130.83] Ry 
 Optimized for a Real-space Cutoff    1.38 Angstroem

   l    n(q)    QCUT    max X(q) W(low)/X(q) W(high)/X(q)  e(spline) 
   2      8    10.726     4.811    0.85E-04    0.11E-04    0.42E-07
   2      8    10.726    15.146    0.35E-03    0.36E-03    0.16E-06
   0      9    10.726    14.357    0.27E-04    0.12E-04    0.41E-08
   0      9    10.726    43.282    0.32E-03    0.20E-03    0.51E-07
   1      8    10.726     5.514    0.41E-04    0.49E-04    0.31E-07
   1      8    10.726     7.697    0.22E-03    0.14E-03    0.16E-06
 Optimization of the real space projectors (new method)

 maximal supplied QI-value         = 15.68
 optimisation between [QCUT,QGAM] = [ 10.82, 21.64] = [ 32.80,131.19] Ry 
 Optimized for a Real-space Cutoff    1.65 Angstroem

   l    n(q)    QCUT    max X(q) W(low)/X(q) W(high)/X(q)  e(spline) 
   0     11    10.822    10.201    0.23E-04    0.55E-05    0.31E-07
   0     11    10.822     8.174    0.35E-04    0.99E-05    0.65E-07
   1     10    10.822     3.488    0.18E-04    0.21E-04    0.55E-07
   1     10    10.822     4.917    0.15E-03    0.13E-03    0.29E-06
   2     10    10.822   153.744    0.28E-03    0.15E-03    0.13E-05
   2     10    10.822   126.342    0.28E-03    0.15E-03    0.13E-05
 Optimization of the real space projectors (new method)

 maximal supplied QI-value         = 13.61
 optimisation between [QCUT,QGAM] = [ 10.75, 21.63] = [ 32.35,131.06] Ry 
 Optimized for a Real-space Cutoff    1.65 Angstroem

   l    n(q)    QCUT    max X(q) W(low)/X(q) W(high)/X(q)  e(spline) 
   2     10    10.749   130.855    0.24E-03    0.22E-03    0.39E-06
   2     10    10.749   114.007    0.24E-03    0.22E-03    0.39E-06
   0     11    10.749    84.709    0.32E-04    0.10E-04    0.34E-06
   0     11    10.749    49.163    0.26E-04    0.89E-05    0.31E-06
   1     10    10.749    15.765    0.14E-03    0.94E-05    0.22E-06
   1     10    10.749    10.638    0.10E-03    0.52E-05    0.16E-06
 PAW_PBE Ni 06Sep2000                   :
 energy of atom  1       EATOM=-1077.9025
 kinetic energy error for atom=    0.0038 (will be added to EATOM!!)
  PAW_PBE Nb_sv 25May2007               :
 energy of atom  2       EATOM=-1555.1913
 kinetic energy error for atom=    0.0113 (will be added to EATOM!!)
  PAW_PBE W 08Apr2002                   :
 energy of atom  3       EATOM= -204.6103
 kinetic energy error for atom=    0.0022 (will be added to EATOM!!)
 
 
 POSCAR: Ni Nb  W                                
  positions in direct lattice
  velocities in cartesian coordinates
 exchange correlation table for  LEXCH =        8
   RHO(1)=    0.500       N(1)  =     2000
   RHO(2)=  100.500       N(2)  =     4000
 


--------------------------------------------------------------------------------------------------------


 ion  position               nearest neighbor table
   1  0.013  0.476  0.241-  15 2.48   9 2.49  67 2.50  43 2.52  30 2.54  34 2.56  68 2.60  59 2.75

   2  0.185  0.978  0.248-  63 2.55   3 2.55  64 2.55  12 2.59  23 2.61  13 2.62  65 2.62  57 2.63
                            55 2.75
   3  0.015  0.030  0.175-   4 2.53  13 2.53   2 2.55   5 2.55  61 2.56  63 2.57  55 2.57  71 2.58
                            48 2.60  37 2.60  12 2.60  20 2.62
   4  0.175  0.197  0.172-   9 2.46  60 2.52   3 2.53  71 2.55  12 2.55  57 2.57   6 2.59  41 2.59
                            55 2.60  48 2.60  30 2.61   7 2.70
   5  0.179  0.976  0.103-  71 2.48  29 2.51  41 2.52  17 2.52  28 2.52  49 2.53  12 2.54   3 2.55
                            46 2.57  20 2.57  63 2.60  47 2.62
   6  0.180  0.309  0.098-  21 2.48  69 2.51  36 2.53  27 2.54  44 2.55  19 2.57   9 2.59  41 2.59
                             4 2.59  60 2.59  71 2.61  11 2.62
   7  0.522  0.198  0.172-  60 2.46  48 2.48  11 2.52  38 2.52  37 2.53  50 2.55  12 2.55  33 2.56
                            41 2.59  57 2.60   4 2.70  53 2.70
   8  0.691  0.703  0.025-  31 2.46  62 2.52  42 2.52  14 2.53  40 2.54  18 2.55  56 2.56  58 2.58
                            35 2.67
   9  0.014  0.358  0.173-   4 2.46   1 2.49  50 2.50  48 2.50  30 2.56  68 2.57  34 2.58   6 2.59
                            27 2.59  60 2.65  21 2.65
  10  0.682  0.804  0.245-  65 2.47  22 2.48  61 2.51  43 2.51  23 2.56  13 2.57  16 2.58  64 2.60
                            32 2.60
  11  0.516  0.300  0.098-  33 2.48  41 2.48  39 2.50  19 2.51   7 2.52  70 2.52  60 2.59  50 2.60
                            66 2.60  44 2.61   6 2.62  27 2.63
  12  0.350  0.032  0.173-  65 2.48  41 2.54   5 2.54   4 2.55   7 2.55  63 2.57  37 2.58  47 2.58
                             2 2.59   3 2.60  57 2.62  32 2.63
  13  0.849  0.973  0.247-  38 2.48  64 2.49   3 2.53  61 2.55  65 2.57  10 2.57  55 2.59   2 2.62
                            37 2.64
  14  0.850  0.641  0.096-  40 2.50  18 2.50  34 2.51  42 2.51   8 2.53  52 2.55  16 2.57  66 2.58
                            21 2.58  17 2.58  26 2.60  58 2.67
  15  0.695  0.487  0.237-  43 2.40  53 2.42  34 2.43  24 2.45  22 2.47   1 2.48  50 2.56  59 2.58

  16  0.688  0.694  0.170-  43 2.51  34 2.52  22 2.52  61 2.53  32 2.54  42 2.55  24 2.56  26 2.56
                            14 2.57  10 2.58  25 2.61  58 2.64
  17  0.017  0.810  0.101-  26 2.50  28 2.52   5 2.52  52 2.52  42 2.53  20 2.53  46 2.54  18 2.54
                            31 2.56  14 2.58  61 2.59  63 2.63
  18  0.019  0.702  0.028-  52 2.47  46 2.48  14 2.50  31 2.52  17 2.54   8 2.55  40 2.56  35 2.56
                            54 2.61
  19  0.357  0.358  0.026-  44 2.50  11 2.51  69 2.53  70 2.55   6 2.57  39 2.57  54 2.63  36 2.66
                            56 2.76
  20  0.849  0.975  0.100-  71 2.48  31 2.51  42 2.51  33 2.52  37 2.53  17 2.53  45 2.53  49 2.54
                            61 2.55   5 2.57  47 2.59   3 2.62
  21  0.013  0.470  0.096-   6 2.48  34 2.50  68 2.50  36 2.51  27 2.52  54 2.54  66 2.57  40 2.57
                            14 2.58  52 2.62  44 2.64   9 2.65
  22  0.517  0.643  0.241-  25 2.45  15 2.47  10 2.48  23 2.50  16 2.52  67 2.55  59 2.57  24 2.58
                            43 2.63
  23  0.354  0.806  0.248-  65 2.48  22 2.50  63 2.54  10 2.56  25 2.58  67 2.59   2 2.61  64 2.64
                            32 2.65
  24  0.520  0.527  0.169-  15 2.45  50 2.54  16 2.56  44 2.57  60 2.58  22 2.58  25 2.59  34 2.60
                            66 2.62  58 2.66  68 2.66  59 2.66
  25  0.353  0.697  0.173-  22 2.45  32 2.46  67 2.51  63 2.53  23 2.58  24 2.59  28 2.60  58 2.60
                            16 2.61  26 2.61  68 2.63  52 2.67
  26  0.018  0.694  0.170-  43 2.48  17 2.50  34 2.52  68 2.53  52 2.54  16 2.56  63 2.59  67 2.59
                            14 2.60  25 2.61  61 2.64  64 2.75
  27  0.854  0.302  0.098-  71 2.50  50 2.50  33 2.52  21 2.52  48 2.53  36 2.53   6 2.54  70 2.54
                            51 2.55   9 2.59  66 2.60  11 2.63
  28  0.340  0.810  0.099-  46 2.43  58 2.47  62 2.48  17 2.52  52 2.52   5 2.52  32 2.55  47 2.56
                            25 2.60  35 2.60  63 2.63  42 2.74
  29  0.342  0.025  0.031-  46 2.45  41 2.50  49 2.50  47 2.50  39 2.51   5 2.51  62 2.51  69 2.52
                            45 2.64
  30  0.189  0.314  0.246-  57 2.44  59 2.47   1 2.54  60 2.55   9 2.56   4 2.61  55 2.63
  31  0.849  0.865  0.029-   8 2.46  42 2.46  45 2.48  49 2.49  20 2.51  18 2.52  62 2.56  17 2.56
                            46 2.62
  32  0.515  0.858  0.170-  65 2.45  25 2.46  61 2.52  47 2.53  16 2.54  28 2.55  63 2.56  42 2.57
                            10 2.60  37 2.60  12 2.63  23 2.65
  33  0.682  0.139  0.099-  11 2.48  39 2.49  45 2.50  20 2.52  47 2.52  27 2.52  37 2.54  51 2.54
                             7 2.56  71 2.57  48 2.57  41 2.60
  34  0.854  0.529  0.167-  15 2.43  21 2.50  50 2.51  14 2.51  26 2.52  16 2.52  68 2.53   1 2.56
                             9 2.58  24 2.60  43 2.61  66 2.62
  35  0.348  0.701  0.023-  46 2.50  58 2.52  62 2.56  18 2.56  28 2.60  52 2.61  54 2.64  56 2.65
                             8 2.67
  36  0.014  0.357  0.026-  21 2.51   6 2.53  69 2.53  27 2.53  51 2.54  70 2.57  54 2.57  40 2.66
                            19 2.66
  37  0.681  0.030  0.171-  38 2.45  65 2.48  61 2.49  20 2.53   7 2.53  47 2.53  48 2.53  33 2.54
                            12 2.58   3 2.60  32 2.60  13 2.64
  38  0.677  0.132  0.243-  55 2.45  37 2.45  13 2.48  65 2.50  53 2.50   7 2.52  48 2.54  57 2.58

  39  0.515  0.186  0.028-  45 2.47  33 2.49  11 2.50  29 2.51  70 2.52  41 2.52  69 2.54  19 2.57
                            51 2.65
  40  0.853  0.535  0.024-  14 2.50  56 2.50  54 2.52  66 2.53   8 2.54  18 2.56  21 2.57  36 2.66
                            70 2.77
  41  0.348  0.139  0.100-  11 2.48  29 2.50  69 2.50   5 2.52  39 2.52  47 2.52  12 2.54   7 2.59
                             6 2.59   4 2.59  33 2.60  71 2.61
  42  0.692  0.807  0.099-  62 2.45  31 2.46  20 2.51  14 2.51  58 2.52   8 2.52  17 2.53  61 2.55
                            16 2.55  32 2.57  47 2.59  28 2.74
  43  0.856  0.643  0.241-  15 2.40  26 2.48  16 2.51  10 2.51   1 2.52  64 2.54  67 2.60  34 2.61
                            22 2.63
  44  0.353  0.474  0.095-  19 2.50  68 2.55   6 2.55  54 2.56  66 2.56  24 2.57  58 2.61  11 2.61
                            52 2.62  21 2.64  60 2.68  56 2.99
  45  0.681  0.026  0.029-  62 2.45  39 2.47  31 2.48  33 2.50  47 2.51  51 2.52  20 2.53  29 2.64
                            49 2.65
  46  0.185  0.864  0.030-  28 2.43  29 2.45  49 2.48  18 2.48  35 2.50  17 2.54   5 2.57  62 2.61
                            31 2.62
  47  0.515  0.975  0.100-  62 2.43  29 2.50  45 2.51  33 2.52  41 2.52  37 2.53  32 2.53  28 2.56
                            12 2.58  20 2.59  42 2.59   5 2.62
  48  0.840  0.198  0.172-  50 2.46  55 2.47   7 2.48   9 2.50  27 2.53  37 2.53  38 2.54  33 2.57
                            71 2.58   3 2.60   4 2.60
  49  0.021  0.025  0.029-  46 2.48  51 2.49  31 2.49  29 2.50  71 2.53   5 2.53  20 2.54  69 2.57
                            45 2.65
  50  0.694  0.363  0.169-  48 2.46  53 2.46   9 2.50  27 2.50  34 2.51  24 2.54   7 2.55  15 2.56
                            66 2.60  11 2.60  60 2.63
  51  0.856  0.187  0.027-  49 2.49  70 2.51  45 2.52  71 2.53  33 2.54  36 2.54  27 2.55  69 2.59
                            39 2.65
  52  0.178  0.644  0.097-  18 2.47  28 2.52  68 2.52  17 2.52  26 2.54  14 2.55  58 2.56  54 2.58
                            35 2.61  44 2.62  21 2.62  25 2.67
  53  0.590  0.315  0.247-  15 2.42  50 2.46  38 2.50  59 2.68   7 2.70  57 2.85  60 2.87
  54  0.176  0.527  0.025-  40 2.52  21 2.54  44 2.56  36 2.57  52 2.58  18 2.61  19 2.63  35 2.64
                            56 2.84
  55  0.990  0.152  0.245-  38 2.45  48 2.47   3 2.57  13 2.59   4 2.60  30 2.63   2 2.75  57 2.78

  56  0.536  0.535  0.008-  40 2.50   8 2.56  35 2.65  70 2.75  19 2.76  66 2.81  54 2.84  58 2.93
                            44 2.99
  57  0.348  0.153  0.246-  30 2.44   4 2.57  38 2.58   7 2.60  12 2.62   2 2.63  55 2.78  65 2.81
                            53 2.85
  58  0.507  0.650  0.096-  28 2.47  35 2.52  42 2.52  52 2.56   8 2.58  25 2.60  44 2.61  16 2.64
                            24 2.66  14 2.67  66 2.72  56 2.93
  59  0.366  0.470  0.247-  30 2.47  67 2.56  22 2.57  15 2.58  60 2.63  24 2.66  53 2.68   1 2.75
                            68 2.85
  60  0.355  0.357  0.172-   7 2.46   4 2.52  30 2.55  24 2.58  11 2.59   6 2.59  68 2.63  59 2.63
                            50 2.63   9 2.65  44 2.68  53 2.87
  61  0.839  0.865  0.173-  37 2.49  10 2.51  32 2.52  16 2.53  20 2.55  42 2.55  13 2.55   3 2.56
                            17 2.59  26 2.64  64 2.67  63 2.71  65 3.40
  62  0.520  0.865  0.032-  47 2.43  42 2.45  45 2.45  28 2.48  29 2.51   8 2.52  31 2.56  35 2.56
                            46 2.61
  63  0.187  0.862  0.176-  25 2.53  23 2.54   2 2.55  32 2.56  12 2.57   3 2.57  64 2.57  26 2.59
                             5 2.60  17 2.63  28 2.63  61 2.71  65 3.44
  64  0.015  0.812  0.249-  13 2.49  43 2.54   2 2.55  63 2.57  10 2.60  23 2.64  61 2.67  67 2.70
                            26 2.75
  65  0.520  0.966  0.240-  32 2.45  10 2.47  37 2.48  23 2.48  12 2.48  38 2.50  13 2.57   2 2.62
                            57 2.81  61 3.40  63 3.44
  66  0.682  0.471  0.093-  70 2.51  40 2.53  44 2.56  21 2.57  14 2.58  27 2.60  50 2.60  11 2.60
                            34 2.62  24 2.62  58 2.72  56 2.81
  67  0.190  0.635  0.242-   1 2.50  25 2.51  22 2.55  59 2.56  26 2.59  23 2.59  43 2.60  68 2.61
                            64 2.70
  68  0.179  0.527  0.166-  21 2.50  52 2.52  34 2.53  26 2.53  44 2.55   9 2.57   1 2.60  67 2.61
                            60 2.63  25 2.63  24 2.66  59 2.85
  69  0.188  0.194  0.029-  41 2.50   6 2.51  29 2.52  19 2.53  36 2.53  39 2.54  49 2.57  51 2.59
                            71 2.59
  70  0.685  0.349  0.026-  51 2.51  66 2.51  39 2.52  11 2.52  27 2.54  19 2.55  36 2.57  56 2.75
                            40 2.77
  71  0.012  0.137  0.101-  20 2.48   5 2.48  27 2.50  49 2.53  51 2.53   4 2.55  33 2.57   3 2.58
                            48 2.58  69 2.59  41 2.61   6 2.61
 
  LATTYP: Found a simple orthorhombic cell.
 ALAT       =     7.7784981728
 B/A-ratio  =     1.6889770438
 C/A-ratio  =     3.6971751997
  
  Lattice vectors:
  
 A1 = (   7.7784981728,   0.0000000000,   0.0000000000)
 A2 = (   0.0000000000,  13.1377048492,   0.0000000000)
 A3 = (   0.0000000000,   0.0000000000,  28.7584705353)


Analysis of symmetry for initial positions (statically):
=====================================================================
 Subroutine PRICEL returns:
 Original cell was already a primitive cell.
 

 Routine SETGRP: Setting up the symmetry group for a 
 simple orthorhombic supercell.


 Subroutine GETGRP returns: Found  1 space group operations
 (whereof  1 operations were pure point group operations)
 out of a pool of  8 trial point group operations.


The static configuration has the point symmetry C_1 .


Analysis of symmetry for dynamics (positions and initial velocities):
=====================================================================
 Subroutine PRICEL returns:
 Original cell was already a primitive cell.
 

 Routine SETGRP: Setting up the symmetry group for a 
 simple orthorhombic supercell.


 Subroutine GETGRP returns: Found  1 space group operations
 (whereof  1 operations were pure point group operations)
 out of a pool of  8 trial point group operations.


The dynamic configuration has the point symmetry C_1 .


Analysis of structural, dynamic, and magnetic symmetry:
=====================================================================
 Subroutine PRICEL returns:
 Original cell was already a primitive cell.
 

 Routine SETGRP: Setting up the symmetry group for a 
 simple orthorhombic supercell.


 Subroutine GETGRP returns: Found  1 space group operations
 (whereof  1 operations were pure point group operations)
 out of a pool of  8 trial point group operations.


The magnetic configuration has the point symmetry C_1 .


 Subroutine INISYM returns: Found  1 space group operations
 (whereof  1 operations are pure point group operations),
 and found     1 'primitive' translations

 
 
 KPOINTS: k-points                                

Automatic generation of k-mesh.
Space group operators:
 irot       det(A)        alpha          n_x          n_y          n_z        tau_x        tau_y        tau_z
    1     1.000000     0.000000     1.000000     0.000000     0.000000     0.000000     0.000000     0.000000
 
 Subroutine IBZKPT returns following result:
 ===========================================
 
 Found      5 irreducible k-points:
 
 Following reciprocal coordinates:
            Coordinates               Weight
  0.000000  0.000000  0.000000      1.000000
  0.333333  0.000000  0.000000      2.000000
  0.000000  0.333333  0.000000      2.000000
  0.333333  0.333333  0.000000      2.000000
 -0.333333  0.333333  0.000000      2.000000
 
 Following cartesian coordinates:
            Coordinates               Weight
  0.000000  0.000000  0.000000      1.000000
  0.042853  0.000000  0.000000      2.000000
  0.000000  0.025372  0.000000      2.000000
  0.042853  0.025372  0.000000      2.000000
 -0.042853  0.025372  0.000000      2.000000
 


--------------------------------------------------------------------------------------------------------




 Dimension of arrays:
   k-points           NKPTS =      5   k-points in BZ     NKDIM =      5   number of bands    NBANDS=    444
   number of dos      NEDOS =    301   number of ions     NIONS =     71
   non local maximal  LDIM  =      6   non local SUM 2l+1 LMDIM =     18
   total plane-waves  NPLWV = 420000
   max r-space proj   IRMAX =   2733   max aug-charges    IRDMAX=   8356
   dimension x,y,z NGX =    40 NGY =   70 NGZ =  150
   dimension x,y,z NGXF=    80 NGYF=  140 NGZF=  300
   support grid    NGXF=    80 NGYF=  140 NGZF=  300
   ions per type =              52   6  13
 NGX,Y,Z   is equivalent  to a cutoff of   8.55,  8.86,  8.67 a.u.
 NGXF,Y,Z  is equivalent  to a cutoff of  17.10, 17.72, 17.34 a.u.


 I would recommend the setting:
   dimension x,y,z NGX =    40 NGY =   68 NGZ =  149
 SYSTEM =  clean (100) surface                     
 POSCAR =  Ni Nb  W                                

 Startparameter for this run:
   NWRITE =      2    write-flag & timer
   PREC   = normal    normal or accurate (medium, high low for compatibility)
   ISTART =      0    job   : 0-new  1-cont  2-samecut
   ICHARG =      2    charge: 1-file 2-atom 10-const
   ISPIN  =      2    spin polarized calculation?
   LNONCOLLINEAR =      F non collinear calculations
   LSORBIT =      F    spin-orbit coupling
   INIWAV =      1    electr: 0-lowe 1-rand  2-diag
   LASPH  =      F    aspherical Exc in radial PAW
   METAGGA=      F    non-selfconsistent MetaGGA calc.

 Electronic Relaxation 1
   ENCUT  =  450.0 eV  33.07 Ry    5.75 a.u.  13.45 22.72 49.74*2*pi/ulx,y,z
   ENINI  =  450.0     initial cutoff
   ENAUG  =  544.6 eV  augmentation charge cutoff
   NELM   =     60;   NELMIN=  2; NELMDL= -5     # of ELM steps 
   EDIFF  = 0.1E-05   stopping-criterion for ELM
   LREAL  =      T    real-space projection
   NLSPLINE    = F    spline interpolate recip. space projectors
   LCOMPAT=      F    compatible to vasp.4.4
   GGA_COMPAT  = T    GGA compatible to vasp.4.4-vasp.4.6
   LMAXPAW     = -100 max onsite density
   LMAXMIX     =    2 max onsite mixed and CHGCAR
   VOSKOWN=      0    Vosko Wilk Nusair interpolation
   ROPT   =   -0.00050  -0.00050  -0.00050
 Ionic relaxation
   EDIFFG = -.1E-01   stopping-criterion for IOM
   NSW    =    250    number of steps for IOM
   NBLOCK =      1;   KBLOCK =    250    inner block; outer block 
   IBRION =      2    ionic relax: 0-MD 1-quasi-New 2-CG
   NFREE  =      1    steps in history (QN), initial steepest desc. (CG)
   ISIF   =      2    stress and relaxation
   IWAVPR =     11    prediction:  0-non 1-charg 2-wave 3-comb
   ISYM   =      2    0-nonsym 1-usesym 2-fastsym
   LCORR  =      T    Harris-Foulkes like correction to forces

   POTIM  = 0.1000    time-step for ionic-motion
   TEIN   =    0.0    initial temperature
   TEBEG  =    0.0;   TEEND  =   0.0 temperature during run
   SMASS  =  -3.00    Nose mass-parameter (am)
   estimated Nose-frequenzy (Omega)   =  0.10E-29 period in steps =****** mass=  -0.138E-26a.u.
   SCALEE = 1.0000    scale energy and forces
   NPACO  =    256;   APACO  = 16.0  distance and # of slots for P.C.
   PSTRESS=    0.0 pullay stress

  Mass of Ions in am
   POMASS =  58.69 92.91183.85
  Ionic Valenz
   ZVAL   =  10.00 13.00  6.00
  Atomic Wigner-Seitz radii
   RWIGS  =  -1.00 -1.00 -1.00
  virtual crystal weights 
   VCA    =   1.00  1.00  1.00
   NELECT =     676.0000    total number of electrons
   NUPDOWN=      -1.0000    fix difference up-down

 DOS related values:
   EMIN   =  10.00;   EMAX   =-10.00  energy-range for DOS
   EFERMI =   0.00
   ISMEAR =     2;   SIGMA  =   0.20  broadening in eV -4-tet -1-fermi 0-gaus

 Electronic relaxation 2 (details)
   IALGO  =     68    algorithm
   LDIAG  =      T    sub-space diagonalisation (order eigenvalues)
   LSUBROT=      F    optimize rotation matrix (better conditioning)
   TURBO    =      0    0=normal 1=particle mesh
   IRESTART =      0    0=no restart 2=restart with 2 vectors
   NREBOOT  =      0    no. of reboots
   NMIN     =      0    reboot dimension
   EREF     =   0.00    reference energy to select bands
   IMIX   =      4    mixing-type and parameters
     AMIX     =   0.40;   BMIX     =  1.00
     AMIX_MAG =   1.60;   BMIX_MAG =  1.00
     AMIN     =   0.10
     WC   =   100.;   INIMIX=   1;  MIXPRE=   1;  MAXMIX= -45

 Intra band minimization:
   WEIMIN = 0.0010     energy-eigenvalue tresh-hold
   EBREAK =  0.56E-09  absolut break condition
   DEPER  =   0.30     relativ break condition  

   TIME   =   0.40     timestep for ELM

  volume/ion in A,a.u.               =      41.39       279.33
  Fermi-wavevector in a.u.,A,eV,Ry     =   1.003067  1.895522 13.689419  1.006144
  Thomas-Fermi vector in A             =   2.135595
 
 Write flags
   LWAVE  =      F    write WAVECAR
   LCHARG =      F    write CHGCAR
   LVTOT  =      F    write LOCPOT, total local potential
   LVHAR  =      F    write LOCPOT, Hartree potential only
   LELF   =      F    write electronic localiz. function (ELF)
   LORBIT =      0    0 simple, 1 ext, 2 COOP (PROOUT)


 Dipole corrections
   LMONO  =      F    monopole corrections only (constant potential shift)
   LDIPOL =      F    correct potential (dipole corrections)
   IDIPOL =      0    1-x, 2-y, 3-z, 4-all directions 
   EPSILON=  1.0000000 bulk dielectric constant

 Exchange correlation treatment:
   GGA     =    --    GGA type
   LEXCH   =     8    internal setting for exchange type
   VOSKOWN=      0    Vosko Wilk Nusair interpolation
   LHFCALC =     F    Hartree Fock is set to
   LHFONE  =     F    Hartree Fock one center treatment
   AEXX    =    0.0000 exact exchange contribution

 Linear response parameters
   LEPSILON=     F    determine dielectric tensor
   LRPA    =     F    only Hartree local field effects (RPA)
   LNABLA  =     F    use nabla operator in PAW spheres
   LVEL    =     F    velocity operator in full k-point grid
   LINTERFAST=   F  fast interpolation
   KINTER  =     0    interpolate to denser k-point grid
   CSHIFT  =0.1000    complex shift for real part using Kramers Kronig
   OMEGAMAX=  -1.0    maximum frequency
   DEG_THRESHOLD= 0.2000000E-02 threshold for treating states as degnerate
   RTIME   =    0.100 relaxation time in fs

 Orbital magnetization related:
   ORBITALMAG=     F  switch on orbital magnetization
   LCHIMAG   =     F  perturbation theory with respect to B field
   DQ        =  0.001000  dq finite difference perturbation B field



--------------------------------------------------------------------------------------------------------


 conjugate gradient relaxation of ions
 charge density and potential will be updated during run
 spin polarized calculation
 RMM-DIIS sequential band-by-band and
  variant of blocked Davidson during initial phase
 perform sub-space diagonalisation
    before iterative eigenvector-optimisation
 modified Broyden-mixing scheme, WC =      100.0
 initial mixing is a Kerker type mixing with AMIX =  0.4000 and BMIX =      1.0000
 Hartree-type preconditioning will be used
 using additional bands          106
 real space projection scheme for non local part
 use partial core corrections
 calculate Harris-corrections to forces 
   (improved forces if not selfconsistent)
 use gradient corrections 
 use of overlap-Matrix (Vanderbilt PP)
 Methfessel and Paxton  Order N= 2 SIGMA  =   0.20


--------------------------------------------------------------------------------------------------------


  energy-cutoff  :      450.00
  volume of cell :     2938.87
      direct lattice vectors                 reciprocal lattice vectors
     7.778498173  0.000000000  0.000000000     0.128559521  0.000000000  0.000000000
     0.000000000 13.137704849  0.000000000     0.000000000  0.076116796  0.000000000
     0.000000000  0.000000000 28.758470535     0.000000000  0.000000000  0.034772364

  length of vectors
     7.778498173 13.137704849 28.758470535     0.128559521  0.076116796  0.034772364


 
 k-points in units of 2pi/SCALE and weight: k-points                                
   0.00000000  0.00000000  0.00000000       0.111
   0.04285317  0.00000000  0.00000000       0.222
   0.00000000  0.02537227  0.00000000       0.222
   0.04285317  0.02537227  0.00000000       0.222
  -0.04285317  0.02537227  0.00000000       0.222
 
 k-points in reciprocal lattice and weights: k-points                                
   0.00000000  0.00000000  0.00000000       0.111
   0.33333333  0.00000000  0.00000000       0.222
   0.00000000  0.33333333  0.00000000       0.222
   0.33333333  0.33333333  0.00000000       0.222
  -0.33333333  0.33333333  0.00000000       0.222
 
 position of ions in fractional coordinates (direct lattice) 
   0.01313564  0.47592581  0.24119207
   0.18521410  0.97781015  0.24758580
   0.01530083  0.02953917  0.17549179
   0.17500785  0.19689774  0.17237661
   0.17927786  0.97580478  0.10257679
   0.17992178  0.30930304  0.09837652
   0.52209607  0.19776662  0.17165863
   0.69114958  0.70319824  0.02482607
   0.01448008  0.35797278  0.17323594
   0.68215399  0.80440852  0.24460946
   0.51601154  0.29992775  0.09763762
   0.34962490  0.03241848  0.17335152
   0.84901582  0.97316519  0.24670276
   0.84964974  0.64052803  0.09610621
   0.69529856  0.48734058  0.23728803
   0.68838127  0.69393636  0.17035225
   0.01687608  0.80987681  0.10133172
   0.01904795  0.70248153  0.02773201
   0.35691037  0.35807435  0.02639198
   0.84858872  0.97466712  0.10043098
   0.01293586  0.46963298  0.09633526
   0.51743855  0.64311920  0.24118977
   0.35380556  0.80601549  0.24795229
   0.52006353  0.52693290  0.16877854
   0.35347843  0.69749328  0.17301055
   0.01750952  0.69386678  0.17025016
   0.85404401  0.30210048  0.09840454
   0.34019309  0.80956825  0.09857722
   0.34222634  0.02485904  0.03052634
   0.18925683  0.31369103  0.24573662
   0.84858256  0.86541015  0.02898502
   0.51526162  0.85820503  0.17020074
   0.68229167  0.13921728  0.09851789
   0.85364223  0.52894598  0.16699885
   0.34788642  0.70057481  0.02300004
   0.01445339  0.35652163  0.02585492
   0.68130787  0.03005222  0.17137819
   0.67736595  0.13210806  0.24264934
   0.51488144  0.18592825  0.02799761
   0.85268373  0.53496865  0.02396250
   0.34803478  0.13917349  0.09989923
   0.69241918  0.80745376  0.09855530
   0.85610500  0.64333282  0.24109340
   0.35288201  0.47371703  0.09543607
   0.68093459  0.02584701  0.02871118
   0.18500072  0.86354937  0.02960399
   0.51548884  0.97475151  0.10009718
   0.84040206  0.19792752  0.17219695
   0.02111680  0.02533222  0.02904983
   0.69364081  0.36319109  0.16857091
   0.85563632  0.18728778  0.02683553
   0.17797169  0.64370237  0.09689910
   0.59042861  0.31539550  0.24660719
   0.17595137  0.52743025  0.02461198
   0.98999238  0.15211516  0.24492012
   0.53591736  0.53513085  0.00848455
   0.34790299  0.15325116  0.24603278
   0.50708610  0.64995224  0.09557603
   0.36637286  0.47004734  0.24735804
   0.35535688  0.35669112  0.17195148
   0.83894490  0.86471447  0.17332291
   0.52032220  0.86521788  0.03217662
   0.18738814  0.86246911  0.17647618
   0.01517587  0.81161272  0.24919445
   0.52000163  0.96599707  0.23960336
   0.68237702  0.47129898  0.09291439
   0.18979900  0.63456717  0.24234623
   0.17852719  0.52666440  0.16633017
   0.18811401  0.19387627  0.02872039
   0.68451666  0.34884887  0.02611788
   0.01222480  0.13687108  0.10054640
 
 position of ions in cartesian coordinates  (Angst):
   0.10217556  6.25257288  6.93631516
   1.44068755 12.84618111  7.12018888
   0.11901745  0.38807687  5.04687543
   1.36129820  2.58678435  4.95728770
   1.39451252 12.81983523  2.94995148
   1.39952121  4.06353209  2.82915838
   4.06112330  2.59819945  4.93663972
   5.37610572  9.23841094  0.71395981
   0.11263327  4.70294077  4.98200075
   5.30613360 10.56808176  7.03459403
   4.01379485  3.94036228  2.80790856
   2.71955666  0.42590441  4.98532451
   6.60406798 12.78515698  7.09479412
   6.60899892  8.41506824  2.76386747
   5.40837857  6.40253667  6.82404072
   5.35457242  9.11673111  4.89907028
   0.13127056 10.63992250  2.91414521
   0.14816441  9.22899504  0.79753018
   2.77622666  4.70427507  0.75899297
   6.60074577 12.80488892  2.88824144
   0.10062153  6.16989948  2.77045478
   4.02489484  8.44911029  6.93624884
   2.75207592 10.58919365  7.13072863
   4.04531322  6.92268892  4.85381264
   2.74953133  9.16346091  4.97551878
   0.13619778  9.11581694  4.89613414
   6.64317979  3.96890696  2.82996403
   2.64619136 10.63586878  2.83492999
   2.66200694  0.32659071  0.87789089
   1.47213391  4.12118018  7.06700936
   6.60069792 11.36950316  0.83356484
   4.00796155 11.27484435  4.89471302
   5.30720452  1.82899552  2.83322371
   6.64005454  6.94913622  4.80263154
   2.70603387  9.20394510  0.66144604
   0.11242568  4.68387597  0.74354794
   5.29955202  0.39481716  4.92857460
   5.26888978  1.73559665  6.97822398
   4.00500432  2.44267052  0.80516845
   6.63259880  7.02826020  0.68912483
   2.70718791  1.82842026  2.87294918
   5.38598132 10.60808921  2.83429961
   6.65921119  8.45191667  6.93347735
   2.74489204  6.22355454  2.74459549
   5.29664844  0.33957034  0.82568969
   1.43902774 11.34505677  0.85136559
   4.00972902 12.80599760  2.87864167
   6.53706586  2.60031336  4.95212083
   0.16425703  0.33280724  0.83542858
   5.39548380  4.77149729  4.84784151
   6.65556559  2.46053156  0.77174871
   1.38435244  8.45677179  2.78666988
   4.59264790  4.14357300  7.09204574
   1.36863744  6.92922295  0.70780288
   7.70065390  1.99844402  7.04352800
   4.16863218  7.03039111  0.24400266
   2.70616276  2.01336851  7.07552642
   3.94436830  8.53888064  2.74862045
   2.84983062  6.17534320  7.11363896
   2.76414287  4.68610262  4.94506167
   6.52573138 11.36036346  4.98450172
   4.04732525 11.36697720  0.92535044
   1.45759833 11.33086466  5.07518511
   0.11804546 10.66272836  7.16645112
   4.04483171 12.69098443  6.89062615
   5.30786838  6.19178691  2.67207568
   1.47635117  8.33675614  6.96950690
   1.38867342  6.91916140  4.78340142
   1.46324450  2.54708920  0.82595446
   5.32451159  4.58307352  0.75111021
   0.09509059  1.79817189  2.89156056
 


--------------------------------------------------------------------------------------------------------


 k-point  1 :   0.0000 0.0000 0.0000  plane waves:   63805
 k-point  2 :   0.3333 0.0000 0.0000  plane waves:   63663
 k-point  3 :   0.0000 0.3333 0.0000  plane waves:   63734
 k-point  4 :   0.3333 0.3333 0.0000  plane waves:   63687
 k-point  5 :  -0.3333 0.3333 0.0000  plane waves:   63687

 maximum and minimum number of plane-waves per node :      2678     2635

 maximum number of plane-waves:     63805
 maximum index in each direction: 
   IXMAX=   13   IYMAX=   22   IZMAX=   49
   IXMIN=  -13   IYMIN=  -23   IZMIN=  -49

 WARNING: aliasing errors must be expected set NGX to  54 to avoid them
 WARNING: aliasing errors must be expected set NGY to  92 to avoid them
 WARNING: aliasing errors must be expected set NGZ to 198 to avoid them
 aliasing errors are usually negligible using standard VASP settings
 and one can safely disregard these warnings

 real space projection operators:
  total allocation   :      18134.02 KBytes
  max/ min on nodes  :        932.20        425.67


 parallel 3D FFT for wavefunctions:
    minimum data exchange during FFTs selected (reduces bandwidth)
 parallel 3D FFT for charge:
    minimum data exchange during FFTs selected (reduces bandwidth)


 total amount of memory used by VASP on root node    90117. kBytes
========================================================================

   base      :      30000. kBytes
   nonlr-proj:       4401. kBytes
   fftplans  :       2058. kBytes
   grid      :       5400. kBytes
   one-center:         93. kBytes
   wavefun   :      48165. kBytes
 
     INWAV:  cpu time    0.0000: real time    0.0000
 Broyden mixing: mesh for mixing (old mesh)
   NGX = 27   NGY = 45   NGZ = 99
  (NGX  = 80   NGY  =140   NGZ  =300)
  gives a total of 120285 points

 initial charge density was supplied:
 charge density of overlapping atoms calculated
 number of electron     676.0000000 magnetization      71.0000000
 keeping initial charge density in first step


--------------------------------------------------------------------------------------------------------


 Maximum index for non-local projection operator          235
 Maximum index for augmentation-charges          487 (set IRDMAX)


--------------------------------------------------------------------------------------------------------


 First call to EWALD:  gamma=   0.124
 Maximum number of real-space cells 5x 3x 2
 Maximum number of reciprocal cells 2x 3x 5

 FEWALD executed in parallel
    FEWALD:  cpu time    0.0025: real time    0.0025


----------------------------------------- Iteration    1(   1)  ---------------------------------------


    POTLOK:  cpu time    0.0704: real time    0.0760
    SETDIJ:  cpu time    0.0179: real time    0.0192
     EDDAV:  cpu time   12.9881: real time   13.0144
       DOS:  cpu time    0.0059: real time    0.0071
    --------------------------------------------
      LOOP:  cpu time   13.0867: real time   13.1245

 eigenvalue-minimisations  :  9016
 total energy-change (2. order) : 0.5485131E+04  (-0.2654667E+05)
 number of electron     676.0000000 magnetization      71.0000000
 augmentation part      676.0000000 magnetization      71.0000000

 Free energy of the ion-electron system (eV)
  ---------------------------------------------------
  alpha Z        PSCENC =      1727.34933209
  Ewald energy   TEWEN  =    441155.03877373
  -Hartree energ DENC   =   -505890.95092799
  -exchange      EXHF   =         0.00000000
  -V(xc)+E(xc)   XCENC  =      1354.33409759
  PAW double counting   =     55812.31580809   -58403.17842822
  entropy T*S    EENTRO =         0.00963167
  eigenvalues    EBANDS =      1688.49578358
  atomic energy  EATOM  =     68041.71651319
  Solvation  Ediel_sol  =         0.00000000
  ---------------------------------------------------
  free energy    TOTEN  =      5485.13058372 eV

  energy without entropy =     5485.12095205  energy(sigma->0) =     5485.12817581


--------------------------------------------------------------------------------------------------------




----------------------------------------- Iteration    1(   2)  ---------------------------------------


     EDDAV:  cpu time   12.7513: real time   12.7519
       DOS:  cpu time    0.0039: real time    0.0039
    --------------------------------------------
      LOOP:  cpu time   12.7573: real time   12.7643

 eigenvalue-minimisations  :  8960
 total energy-change (2. order) :-0.5354249E+04  (-0.5099531E+04)
 number of electron     676.0000000 magnetization      71.0000000
 augmentation part      676.0000000 magnetization      71.0000000

 Free energy of the ion-electron system (eV)
  ---------------------------------------------------
  alpha Z        PSCENC =      1727.34933209
  Ewald energy   TEWEN  =    441155.03877373
  -Hartree energ DENC   =   -505890.95092799
  -exchange      EXHF   =         0.00000000
  -V(xc)+E(xc)   XCENC  =      1354.33409759
  PAW double counting   =     55812.31580809   -58403.17842822
  entropy T*S    EENTRO =        -0.00543783
  eigenvalues    EBANDS =     -3665.73765995
  atomic energy  EATOM  =     68041.71651319
  Solvation  Ediel_sol  =         0.00000000
  ---------------------------------------------------
  free energy    TOTEN  =       130.88207069 eV

  energy without entropy =      130.88750852  energy(sigma->0) =      130.88343015


--------------------------------------------------------------------------------------------------------




----------------------------------------- Iteration    1(   3)  ---------------------------------------


     EDDAV:  cpu time   14.2108: real time   14.2122
       DOS:  cpu time    0.0050: real time    0.0050
    --------------------------------------------
      LOOP:  cpu time   14.2186: real time   14.2268

 eigenvalue-minimisations  : 10328
 total energy-change (2. order) :-0.5986592E+03  (-0.5455725E+03)
 number of electron     676.0000000 magnetization      71.0000000
 augmentation part      676.0000000 magnetization      71.0000000

 Free energy of the ion-electron system (eV)
  ---------------------------------------------------
  alpha Z        PSCENC =      1727.34933209
  Ewald energy   TEWEN  =    441155.03877373
  -Hartree energ DENC   =   -505890.95092799
  -exchange      EXHF   =         0.00000000
  -V(xc)+E(xc)   XCENC  =      1354.33409759
  PAW double counting   =     55812.31580809   -58403.17842822
  entropy T*S    EENTRO =        -0.02550976
  eigenvalues    EBANDS =     -4264.37678286
  atomic energy  EATOM  =     68041.71651319
  Solvation  Ediel_sol  =         0.00000000
  ---------------------------------------------------
  free energy    TOTEN  =      -467.77712415 eV

  energy without entropy =     -467.75161439  energy(sigma->0) =     -467.77074671


--------------------------------------------------------------------------------------------------------




----------------------------------------- Iteration    1(   4)  ---------------------------------------


     EDDAV:  cpu time   17.6205: real time   17.6208
       DOS:  cpu time    0.0035: real time    0.0035
    --------------------------------------------
      LOOP:  cpu time   17.6291: real time   17.6355

 eigenvalue-minimisations  : 13520
 total energy-change (2. order) :-0.8191734E+02  (-0.7521431E+02)
 number of electron     676.0000000 magnetization      71.0000000
 augmentation part      676.0000000 magnetization      71.0000000

 Free energy of the ion-electron system (eV)
  ---------------------------------------------------
  alpha Z        PSCENC =      1727.34933209
  Ewald energy   TEWEN  =    441155.03877373
  -Hartree energ DENC   =   -505890.95092799
  -exchange      EXHF   =         0.00000000
  -V(xc)+E(xc)   XCENC  =      1354.33409759
  PAW double counting   =     55812.31580809   -58403.17842822
  entropy T*S    EENTRO =         0.01546400
  eigenvalues    EBANDS =     -4346.33509310
  atomic energy  EATOM  =     68041.71651319
  Solvation  Ediel_sol  =         0.00000000
  ---------------------------------------------------
  free energy    TOTEN  =      -549.69446063 eV

  energy without entropy =     -549.70992463  energy(sigma->0) =     -549.69832663


--------------------------------------------------------------------------------------------------------




----------------------------------------- Iteration    1(   5)  ---------------------------------------


     EDDAV:  cpu time   19.0881: real time   19.0883
       DOS:  cpu time    0.0045: real time    0.0045
    CHARGE:  cpu time    0.3875: real time    0.3892
    MIXING:  cpu time    0.0072: real time    0.0083
    --------------------------------------------
      LOOP:  cpu time   19.4896: real time   19.4999

 eigenvalue-minimisations  : 14920
 total energy-change (2. order) :-0.8108310E+01  (-0.7916237E+01)
 number of electron     676.0000081 magnetization      68.6020181
 augmentation part      300.9791117 magnetization      58.7161479

 Broyden mixing:
  rms(total) = 0.10184E+02    rms(broyden)= 0.10184E+02
  rms(prec ) = 0.10430E+02
  weight for this iteration     100.00

 Free energy of the ion-electron system (eV)
  ---------------------------------------------------
  alpha Z        PSCENC =      1727.34933209
  Ewald energy   TEWEN  =    441155.03877373
  -Hartree energ DENC   =   -505890.95092799
  -exchange      EXHF   =         0.00000000
  -V(xc)+E(xc)   XCENC  =      1354.33409759
  PAW double counting   =     55812.31580809   -58403.17842822
  entropy T*S    EENTRO =         0.01592629
  eigenvalues    EBANDS =     -4354.44386569
  atomic energy  EATOM  =     68041.71651319
  Solvation  Ediel_sol  =         0.00000000
  ---------------------------------------------------
  free energy    TOTEN  =      -557.80277093 eV

  energy without entropy =     -557.81869722  energy(sigma->0) =     -557.80675250


--------------------------------------------------------------------------------------------------------




----------------------------------------- Iteration    1(   6)  ---------------------------------------


    POTLOK:  cpu time    0.0557: real time    0.0557
    SETDIJ:  cpu time    0.0082: real time    0.0082
    EDDIAG:  cpu time    2.0582: real time    2.0592
  RMM-DIIS:  cpu time    5.3115: real time    5.3119
    ORTHCH:  cpu time    0.6724: real time    0.6724
       DOS:  cpu time    0.0037: real time    0.0037
    CHARGE:  cpu time    0.3814: real time    0.3814
    MIXING:  cpu time    0.0032: real time    0.0054
    --------------------------------------------
      LOOP:  cpu time    8.4960: real time    8.5051

 eigenvalue-minimisations  :  9465
 total energy-change (2. order) :-0.1612309E+03  (-0.1199933E+03)
 number of electron     676.0000052 magnetization      66.7260521
 augmentation part      385.1190344 magnetization      56.8889875

 Broyden mixing:
  rms(total) = 0.10659E+02    rms(broyden)= 0.10659E+02
  rms(prec ) = 0.11773E+02
  weight for this iteration     100.00

 eigenvalues of (default mixing * dielectric matrix)
  average eigenvalue GAMMA=   0.4573
  0.4573

 Free energy of the ion-electron system (eV)
  ---------------------------------------------------
  alpha Z        PSCENC =      1727.34933209
  Ewald energy   TEWEN  =    441155.03877373
  -Hartree energ DENC   =   -504417.94324579
  -exchange      EXHF   =         0.00000000
  -V(xc)+E(xc)   XCENC  =      1278.30928149
  PAW double counting   =     58332.39496060   -60624.59293383
  entropy T*S    EENTRO =         0.00723745
  eigenvalues    EBANDS =     -6211.31361297
  atomic energy  EATOM  =     68041.71651319
  Solvation  Ediel_sol  =         0.00000000
  ---------------------------------------------------
  free energy    TOTEN  =      -719.03369404 eV

  energy without entropy =     -719.04093149  energy(sigma->0) =     -719.03550341


--------------------------------------------------------------------------------------------------------




----------------------------------------- Iteration    1(   7)  ---------------------------------------


    POTLOK:  cpu time    0.0542: real time    0.0542
    SETDIJ:  cpu time    0.0078: real time    0.0078
    EDDIAG:  cpu time    2.0563: real time    2.0563
  RMM-DIIS:  cpu time    5.0701: real time    5.0701
    ORTHCH:  cpu time    0.6714: real time    0.6714
       DOS:  cpu time    0.0039: real time    0.0039
    CHARGE:  cpu time    0.3770: real time    0.3770
    MIXING:  cpu time    0.0017: real time    0.0021
    --------------------------------------------
      LOOP:  cpu time    8.2437: real time    8.2509

 eigenvalue-minimisations  :  9080
 total energy-change (2. order) : 0.1320486E+03  (-0.5902078E+02)
 number of electron     676.0000087 magnetization      65.6674576
 augmentation part      308.2198149 magnetization      49.0295735

 Broyden mixing:
  rms(total) = 0.11121E+02    rms(broyden)= 0.11121E+02
  rms(prec ) = 0.14719E+02
  weight for this iteration     100.00

 eigenvalues of (default mixing * dielectric matrix)
  average eigenvalue GAMMA=   0.4680
  0.7052  0.2308

 Free energy of the ion-electron system (eV)
  ---------------------------------------------------
  alpha Z        PSCENC =      1727.34933209
  Ewald energy   TEWEN  =    441155.03877373
  -Hartree energ DENC   =   -505780.87724384
  -exchange      EXHF   =         0.00000000
  -V(xc)+E(xc)   XCENC  =      1326.14944700
  PAW double counting   =     60468.39883354   -63113.87552566
  entropy T*S    EENTRO =        -0.01786826
  eigenvalues    EBANDS =     -4410.86737768
  atomic energy  EATOM  =     68041.71651319
  Solvation  Ediel_sol  =         0.00000000
  ---------------------------------------------------
  free energy    TOTEN  =      -586.98511589 eV

  energy without entropy =     -586.96724763  energy(sigma->0) =     -586.98064882


--------------------------------------------------------------------------------------------------------




----------------------------------------- Iteration    1(   8)  ---------------------------------------


    POTLOK:  cpu time    0.0544: real time    0.0544
    SETDIJ:  cpu time    0.0078: real time    0.0078
    EDDIAG:  cpu time    2.0533: real time    2.0533
  RMM-DIIS:  cpu time    5.0970: real time    5.0970
    ORTHCH:  cpu time    0.6685: real time    0.6685
       DOS:  cpu time    0.0036: real time    0.0036
    CHARGE:  cpu time    0.3787: real time    0.3787
    MIXING:  cpu time    0.0016: real time    0.0016
    --------------------------------------------
      LOOP:  cpu time    8.2664: real time    8.2736

 eigenvalue-minimisations  :  9088
 total energy-change (2. order) :-0.1389094E+03  (-0.1523830E+02)
 number of electron     676.0000035 magnetization      63.4060067
 augmentation part      301.9348426 magnetization      46.1836065

 Broyden mixing:
  rms(total) = 0.18047E+02    rms(broyden)= 0.18047E+02
  rms(prec ) = 0.22352E+02
  weight for this iteration     100.00

 eigenvalues of (default mixing * dielectric matrix)
  average eigenvalue GAMMA=   0.5296
  1.2179  0.2954  0.0756

 Free energy of the ion-electron system (eV)
  ---------------------------------------------------
  alpha Z        PSCENC =      1727.34933209
  Ewald energy   TEWEN  =    441155.03877373
  -Hartree energ DENC   =   -505639.71868975
  -exchange      EXHF   =         0.00000000
  -V(xc)+E(xc)   XCENC  =      1327.63377801
  PAW double counting   =     61109.45594645   -63774.89142728
  entropy T*S    EENTRO =        -0.00004750
  eigenvalues    EBANDS =     -4672.47873113
  atomic energy  EATOM  =     68041.71651319
  Solvation  Ediel_sol  =         0.00000000
  ---------------------------------------------------
  free energy    TOTEN  =      -725.89455221 eV

  energy without entropy =     -725.89450470  energy(sigma->0) =     -725.89454033


--------------------------------------------------------------------------------------------------------




----------------------------------------- Iteration    1(   9)  ---------------------------------------


    POTLOK:  cpu time    0.0541: real time    0.0541
    SETDIJ:  cpu time    0.0078: real time    0.0078
    EDDIAG:  cpu time    2.0530: real time    2.0530
  RMM-DIIS:  cpu time    5.0613: real time    5.0614
    ORTHCH:  cpu time    0.6725: real time    0.6725
       DOS:  cpu time    0.0039: real time    0.0039
    CHARGE:  cpu time    0.3741: real time    0.3741
    MIXING:  cpu time    0.0017: real time    0.0017
    --------------------------------------------
      LOOP:  cpu time    8.2299: real time    8.2366

 eigenvalue-minimisations  :  9013
 total energy-change (2. order) : 0.1617298E+03  (-0.2047871E+02)
 number of electron     676.0000056 magnetization      62.2848887
 augmentation part      338.5121509 magnetization      43.9019006

 Broyden mixing:
  rms(total) = 0.10551E+02    rms(broyden)= 0.10550E+02
  rms(prec ) = 0.11637E+02
  weight for this iteration     100.00

 eigenvalues of (default mixing * dielectric matrix)
  average eigenvalue GAMMA=   0.4984
  1.4392  0.3449  0.1136  0.0960

 Free energy of the ion-electron system (eV)
  ---------------------------------------------------
  alpha Z        PSCENC =      1727.34933209
  Ewald energy   TEWEN  =    441155.03877373
  -Hartree energ DENC   =   -505317.47780111
  -exchange      EXHF   =         0.00000000
  -V(xc)+E(xc)   XCENC  =      1322.69203461
  PAW double counting   =     62233.26894870   -64892.32549674
  entropy T*S    EENTRO =         0.00842239
  eigenvalues    EBANDS =     -4834.43543487
  atomic energy  EATOM  =     68041.71651319
  Solvation  Ediel_sol  =         0.00000000
  ---------------------------------------------------
  free energy    TOTEN  =      -564.16470803 eV

  energy without entropy =     -564.17313041  energy(sigma->0) =     -564.16681362


--------------------------------------------------------------------------------------------------------




----------------------------------------- Iteration    1(  10)  ---------------------------------------


    POTLOK:  cpu time    0.0542: real time    0.0542
    SETDIJ:  cpu time    0.0079: real time    0.0079
    EDDIAG:  cpu time    2.0538: real time    2.0538
  RMM-DIIS:  cpu time    5.1180: real time    5.1181
    ORTHCH:  cpu time    0.6683: real time    0.6683
       DOS:  cpu time    0.0037: real time    0.0037
    CHARGE:  cpu time    0.3795: real time    0.3795
    MIXING:  cpu time    0.0020: real time    0.0025
    --------------------------------------------
      LOOP:  cpu time    8.2890: real time    8.2963

 eigenvalue-minimisations  :  9061
 total energy-change (2. order) : 0.5369639E+02  (-0.8908328E+01)
 number of electron     676.0000057 magnetization      60.2773744
 augmentation part      357.5720382 magnetization      42.6349283

 Broyden mixing:
  rms(total) = 0.54772E+01    rms(broyden)= 0.54767E+01
  rms(prec ) = 0.62814E+01
  weight for this iteration     100.00

 eigenvalues of (default mixing * dielectric matrix)
  average eigenvalue GAMMA=   0.5186
  1.6772  0.5016  0.1660  0.1660  0.0822

 Free energy of the ion-electron system (eV)
  ---------------------------------------------------
  alpha Z        PSCENC =      1727.34933209
  Ewald energy   TEWEN  =    441155.03877373
  -Hartree energ DENC   =   -505129.74492177
  -exchange      EXHF   =         0.00000000
  -V(xc)+E(xc)   XCENC  =      1322.20458728
  PAW double counting   =     62771.56177391   -65430.44132030
  entropy T*S    EENTRO =        -0.00298362
  eigenvalues    EBANDS =     -4968.15007585
  atomic energy  EATOM  =     68041.71651319
  Solvation  Ediel_sol  =         0.00000000
  ---------------------------------------------------
  free energy    TOTEN  =      -510.46832133 eV

  energy without entropy =     -510.46533771  energy(sigma->0) =     -510.46757543


--------------------------------------------------------------------------------------------------------




----------------------------------------- Iteration    1(  11)  ---------------------------------------


    POTLOK:  cpu time    0.0541: real time    0.0541
    SETDIJ:  cpu time    0.0080: real time    0.0080
    EDDIAG:  cpu time    2.0500: real time    2.0500
  RMM-DIIS:  cpu time    5.0684: real time    5.0685
    ORTHCH:  cpu time    0.6693: real time    0.6694
       DOS:  cpu time    0.0031: real time    0.0031
    CHARGE:  cpu time    0.3790: real time    0.3790
    MIXING:  cpu time    0.0019: real time    0.0019
    --------------------------------------------
      LOOP:  cpu time    8.2353: real time    8.2419

 eigenvalue-minimisations  :  9034
 total energy-change (2. order) : 0.3532273E+02  (-0.3739004E+01)
 number of electron     676.0000061 magnetization      58.5362663
 augmentation part      351.9988549 magnetization      39.3083390

 Broyden mixing:
  rms(total) = 0.43028E+01    rms(broyden)= 0.43026E+01
  rms(prec ) = 0.50347E+01
  weight for this iteration     100.00

 eigenvalues of (default mixing * dielectric matrix)
  average eigenvalue GAMMA=   0.5019
  1.7737  0.5270  0.2503  0.2503  0.0843  0.1255

 Free energy of the ion-electron system (eV)
  ---------------------------------------------------
  alpha Z        PSCENC =      1727.34933209
  Ewald energy   TEWEN  =    441155.03877373
  -Hartree energ DENC   =   -505411.46689518
  -exchange      EXHF   =         0.00000000
  -V(xc)+E(xc)   XCENC  =      1327.71714351
  PAW double counting   =     63813.23019389   -66512.28645180
  entropy T*S    EENTRO =        -0.01180017
  eigenvalues    EBANDS =     -4616.43240027
  atomic energy  EATOM  =     68041.71651319
  Solvation  Ediel_sol  =         0.00000000
  ---------------------------------------------------
  free energy    TOTEN  =      -475.14559101 eV

  energy without entropy =     -475.13379084  energy(sigma->0) =     -475.14264096


--------------------------------------------------------------------------------------------------------




----------------------------------------- Iteration    1(  12)  ---------------------------------------


    POTLOK:  cpu time    0.0540: real time    0.0540
    SETDIJ:  cpu time    0.0078: real time    0.0078
    EDDIAG:  cpu time    2.0527: real time    2.0527
  RMM-DIIS:  cpu time    5.0825: real time    5.0826
    ORTHCH:  cpu time    0.6716: real time    0.6716
       DOS:  cpu time    0.0038: real time    0.0038
    CHARGE:  cpu time    0.3806: real time    0.3806
    MIXING:  cpu time    0.0020: real time    0.0020
    --------------------------------------------
      LOOP:  cpu time    8.2563: real time    8.2636

 eigenvalue-minimisations  :  9133
 total energy-change (2. order) : 0.1489256E+02  (-0.1723112E+01)
 number of electron     676.0000048 magnetization      56.9270242
 augmentation part      344.9127577 magnetization      37.3174721

 Broyden mixing:
  rms(total) = 0.36705E+01    rms(broyden)= 0.36703E+01
  rms(prec ) = 0.43110E+01
  weight for this iteration     100.00

 eigenvalues of (default mixing * dielectric matrix)
  average eigenvalue GAMMA=   0.4935
  1.8553  0.4730  0.4730  0.2840  0.0836  0.1426  0.1426

 Free energy of the ion-electron system (eV)
  ---------------------------------------------------
  alpha Z        PSCENC =      1727.34933209
  Ewald energy   TEWEN  =    441155.03877373
  -Hartree energ DENC   =   -505608.78656471
  -exchange      EXHF   =         0.00000000
  -V(xc)+E(xc)   XCENC  =      1332.73770027
  PAW double counting   =     64565.44800395   -67288.88616980
  entropy T*S    EENTRO =        -0.01264204
  eigenvalues    EBANDS =     -4384.85798035
  atomic energy  EATOM  =     68041.71651319
  Solvation  Ediel_sol  =         0.00000000
  ---------------------------------------------------
  free energy    TOTEN  =      -460.25303368 eV

  energy without entropy =     -460.24039164  energy(sigma->0) =     -460.24987317


--------------------------------------------------------------------------------------------------------




----------------------------------------- Iteration    1(  13)  ---------------------------------------


    POTLOK:  cpu time    0.0541: real time    0.0541
    SETDIJ:  cpu time    0.0078: real time    0.0078
    EDDIAG:  cpu time    2.0579: real time    2.0579
  RMM-DIIS:  cpu time    5.1160: real time    5.1161
    ORTHCH:  cpu time    0.6704: real time    0.6704
       DOS:  cpu time    0.0038: real time    0.0038
    CHARGE:  cpu time    0.3742: real time    0.3742
    MIXING:  cpu time    0.0022: real time    0.0022
    --------------------------------------------
      LOOP:  cpu time    8.2879: real time    8.2947

 eigenvalue-minimisations  :  9206
 total energy-change (2. order) : 0.9894204E+01  (-0.1019650E+01)
 number of electron     676.0000057 magnetization      55.4416709
 augmentation part      341.1340659 magnetization      35.8021571

 Broyden mixing:
  rms(total) = 0.27595E+01    rms(broyden)= 0.27593E+01
  rms(prec ) = 0.31808E+01
  weight for this iteration     100.00

 eigenvalues of (default mixing * dielectric matrix)
  average eigenvalue GAMMA=   0.5067
  1.9561  0.6366  0.6366  0.2767  0.0839  0.1692  0.1692  0.1256

 Free energy of the ion-electron system (eV)
  ---------------------------------------------------
  alpha Z        PSCENC =      1727.34933209
  Ewald energy   TEWEN  =    441155.03877373
  -Hartree energ DENC   =   -505712.67946085
  -exchange      EXHF   =         0.00000000
  -V(xc)+E(xc)   XCENC  =      1336.42923438
  PAW double counting   =     65086.16126113   -67815.53800328
  entropy T*S    EENTRO =         0.00038925
  eigenvalues    EBANDS =     -4268.83686969
  atomic energy  EATOM  =     68041.71651319
  Solvation  Ediel_sol  =         0.00000000
  ---------------------------------------------------
  free energy    TOTEN  =      -450.35883006 eV

  energy without entropy =     -450.35921931  energy(sigma->0) =     -450.35892737


--------------------------------------------------------------------------------------------------------




----------------------------------------- Iteration    1(  14)  ---------------------------------------


    POTLOK:  cpu time    0.0544: real time    0.0544
    SETDIJ:  cpu time    0.0079: real time    0.0079
    EDDIAG:  cpu time    2.0547: real time    2.0548
  RMM-DIIS:  cpu time    5.1205: real time    5.1205
    ORTHCH:  cpu time    0.6709: real time    0.6709
       DOS:  cpu time    0.0037: real time    0.0037
    CHARGE:  cpu time    0.3773: real time    0.3773
    MIXING:  cpu time    0.0022: real time    0.0022
    --------------------------------------------
      LOOP:  cpu time    8.2932: real time    8.2990

 eigenvalue-minimisations  :  9185
 total energy-change (2. order) : 0.4603301E+01  (-0.7068763E+00)
 number of electron     676.0000078 magnetization      53.5723351
 augmentation part      339.1530531 magnetization      33.5059076

 Broyden mixing:
  rms(total) = 0.21813E+01    rms(broyden)= 0.21811E+01
  rms(prec ) = 0.25299E+01
  weight for this iteration     100.00

 eigenvalues of (default mixing * dielectric matrix)
  average eigenvalue GAMMA=   0.5132
  2.0298  0.7557  0.7557  0.3451  0.1964  0.1964  0.0837  0.1281  0.1281

 Free energy of the ion-electron system (eV)
  ---------------------------------------------------
  alpha Z        PSCENC =      1727.34933209
  Ewald energy   TEWEN  =    441155.03877373
  -Hartree energ DENC   =   -505808.42822963
  -exchange      EXHF   =         0.00000000
  -V(xc)+E(xc)   XCENC  =      1338.73645843
  PAW double counting   =     65404.03635761   -68128.99697964
  entropy T*S    EENTRO =         0.00252181
  eigenvalues    EBANDS =     -4175.21027664
  atomic energy  EATOM  =     68041.71651319
  Solvation  Ediel_sol  =         0.00000000
  ---------------------------------------------------
  free energy    TOTEN  =      -445.75552904 eV

  energy without entropy =     -445.75805086  energy(sigma->0) =     -445.75615950


--------------------------------------------------------------------------------------------------------




----------------------------------------- Iteration    1(  15)  ---------------------------------------


    POTLOK:  cpu time    0.0541: real time    0.0541
    SETDIJ:  cpu time    0.0077: real time    0.0077
    EDDIAG:  cpu time    2.0502: real time    2.0503
  RMM-DIIS:  cpu time    5.1206: real time    5.1206
    ORTHCH:  cpu time    0.6680: real time    0.6680
       DOS:  cpu time    0.0036: real time    0.0036
    CHARGE:  cpu time    0.3721: real time    0.3721
    MIXING:  cpu time    0.0025: real time    0.0025
    --------------------------------------------
      LOOP:  cpu time    8.2803: real time    8.2861

 eigenvalue-minimisations  :  9120
 total energy-change (2. order) : 0.2724670E+01  (-0.5665118E+00)
 number of electron     676.0000050 magnetization      51.9088835
 augmentation part      337.5498093 magnetization      31.4332032

 Broyden mixing:
  rms(total) = 0.19517E+01    rms(broyden)= 0.19515E+01
  rms(prec ) = 0.21509E+01
  weight for this iteration     100.00

 eigenvalues of (default mixing * dielectric matrix)
  average eigenvalue GAMMA=   0.5049
  2.0117  0.8180  0.8180  0.4768  0.2202  0.2202  0.0838  0.1424  0.1424  0.1156

 Free energy of the ion-electron system (eV)
  ---------------------------------------------------
  alpha Z        PSCENC =      1727.34933209
  Ewald energy   TEWEN  =    441155.03877373
  -Hartree energ DENC   =   -505917.41033408
  -exchange      EXHF   =         0.00000000
  -V(xc)+E(xc)   XCENC  =      1340.80370143
  PAW double counting   =     65625.52208206   -68336.26446470
  entropy T*S    EENTRO =         0.00462039
  eigenvalues    EBANDS =     -4079.79108329
  atomic energy  EATOM  =     68041.71651319
  Solvation  Ediel_sol  =         0.00000000
  ---------------------------------------------------
  free energy    TOTEN  =      -443.03085920 eV

  energy without entropy =     -443.03547958  energy(sigma->0) =     -443.03201429


--------------------------------------------------------------------------------------------------------




----------------------------------------- Iteration    1(  16)  ---------------------------------------


    POTLOK:  cpu time    0.0541: real time    0.0541
    SETDIJ:  cpu time    0.0078: real time    0.0078
    EDDIAG:  cpu time    2.0551: real time    2.0552
  RMM-DIIS:  cpu time    5.1181: real time    5.1182
    ORTHCH:  cpu time    0.6687: real time    0.6687
       DOS:  cpu time    0.0036: real time    0.0036
    CHARGE:  cpu time    0.3756: real time    0.3756
    MIXING:  cpu time    0.0025: real time    0.0025
    --------------------------------------------
      LOOP:  cpu time    8.2870: real time    8.2944

 eigenvalue-minimisations  :  9158
 total energy-change (2. order) : 0.1769481E+01  (-0.3859761E+00)
 number of electron     676.0000072 magnetization      50.0519317
 augmentation part      337.3042187 magnetization      29.3954835

 Broyden mixing:
  rms(total) = 0.14980E+01    rms(broyden)= 0.14977E+01
  rms(prec ) = 0.15851E+01
  weight for this iteration     100.00

 eigenvalues of (default mixing * dielectric matrix)
  average eigenvalue GAMMA=   0.5099
  1.9175  0.9337  0.9337  0.6656  0.2590  0.2590  0.0838  0.1554  0.1554  0.1289
  0.1166

 Free energy of the ion-electron system (eV)
  ---------------------------------------------------
  alpha Z        PSCENC =      1727.34933209
  Ewald energy   TEWEN  =    441155.03877373
  -Hartree energ DENC   =   -506009.07219726
  -exchange      EXHF   =         0.00000000
  -V(xc)+E(xc)   XCENC  =      1341.75601059
  PAW double counting   =     65716.92673852   -68413.24747232
  entropy T*S    EENTRO =         0.00080625
  eigenvalues    EBANDS =     -4001.72988292
  atomic energy  EATOM  =     68041.71651319
  Solvation  Ediel_sol  =         0.00000000
  ---------------------------------------------------
  free energy    TOTEN  =      -441.26137813 eV

  energy without entropy =     -441.26218438  energy(sigma->0) =     -441.26157969


--------------------------------------------------------------------------------------------------------




----------------------------------------- Iteration    1(  17)  ---------------------------------------


    POTLOK:  cpu time    0.0542: real time    0.0542
    SETDIJ:  cpu time    0.0078: real time    0.0078
    EDDIAG:  cpu time    2.0462: real time    2.0463
  RMM-DIIS:  cpu time    5.1010: real time    5.1011
    ORTHCH:  cpu time    0.6659: real time    0.6659
       DOS:  cpu time    0.0040: real time    0.0040
    CHARGE:  cpu time    0.3768: real time    0.3768
    MIXING:  cpu time    0.0026: real time    0.0026
    --------------------------------------------
      LOOP:  cpu time    8.2601: real time    8.2669

 eigenvalue-minimisations  :  9117
 total energy-change (2. order) : 0.1307142E+00  (-0.3609505E+00)
 number of electron     676.0000078 magnetization      46.9188122
 augmentation part      336.6674834 magnetization      25.9227027

 Broyden mixing:
  rms(total) = 0.16146E+01    rms(broyden)= 0.16143E+01
  rms(prec ) = 0.17484E+01
  weight for this iteration     100.00

 eigenvalues of (default mixing * dielectric matrix)
  average eigenvalue GAMMA=   0.5111
  1.6522  1.1315  1.1315  0.7952  0.3845  0.2395  0.1712  0.1712  0.0838  0.1296
  0.1296  0.1131

 Free energy of the ion-electron system (eV)
  ---------------------------------------------------
  alpha Z        PSCENC =      1727.34933209
  Ewald energy   TEWEN  =    441155.03877373
  -Hartree energ DENC   =   -506105.03576273
  -exchange      EXHF   =         0.00000000
  -V(xc)+E(xc)   XCENC  =      1342.66011258
  PAW double counting   =     65784.30995165   -68467.82209310
  entropy T*S    EENTRO =         0.03412856
  eigenvalues    EBANDS =     -3919.38161988
  atomic energy  EATOM  =     68041.71651319
  Solvation  Ediel_sol  =         0.00000000
  ---------------------------------------------------
  free energy    TOTEN  =      -441.13066393 eV

  energy without entropy =     -441.16479249  energy(sigma->0) =     -441.13919607


--------------------------------------------------------------------------------------------------------




[...]
    OFIELD:  cpu time    0.0000: real time    0.0000

  FORCE on cell =-STRESS in cart. coord.  units (eV):
  Direction    XX          YY          ZZ          XY          YZ          ZX
  --------------------------------------------------------------------------------------
  Alpha Z  1727.34933  1727.34933  1727.34933
  Ewald  479796.47277479810.56576************   -44.95413   199.06555   -37.20180
  Hartree495259.85451495141.18943************  -138.23590   191.22145   -34.53126
  E(xc)   -3556.82569 -3559.49812 -3564.71059     1.74864    -0.73277     0.58635
  Local  ************************997292.10359   188.80682  -391.70647    72.69539
  n-local -1985.08538 -1971.11846 -1989.62623     6.07791     0.61808     0.01839
  augment  2869.54583  2864.98881  2895.02754    -4.30443     1.13985    -0.35298
  Kinetic  6585.28582  6581.58070  6620.74341    -8.29971     0.12547    -0.95456
  Fock        0.00000     0.00000     0.00000     0.00000     0.00000     0.00000
  -------------------------------------------------------------------------------------
  Total     -27.07460    -2.20878    -1.51881     0.83921    -0.26885     0.25952
  in kB     -14.76018    -1.20416    -0.82801     0.45751    -0.14657     0.14148
  external pressure =       -5.60 kB  Pullay stress =        0.00 kB


 VOLUME and BASIS-vectors are now :
 -----------------------------------------------------------------------------
  energy-cutoff  :      450.00
  volume of cell :     2938.87
      direct lattice vectors                 reciprocal lattice vectors
     7.778498173  0.000000000  0.000000000     0.128559521  0.000000000  0.000000000
     0.000000000 13.137704849  0.000000000     0.000000000  0.076116796  0.000000000
     0.000000000  0.000000000 28.758470535     0.000000000  0.000000000  0.034772364

  length of vectors
     7.778498173 13.137704849 28.758470535     0.128559521  0.076116796  0.034772364


 FORCES acting on ions
    electron-ion (+dipol)            ewald-force                    non-local-force                 convergence-correction
 -----------------------------------------------------------------------------------------------
   -.125E+03 0.154E+02 -.313E+04   0.126E+03 -.144E+02 0.313E+04   -.836E+00 -.997E+00 0.534E+00   0.319E-02 0.254E-02 -.164E-01
   -.170E+02 0.173E+03 -.323E+04   0.173E+02 -.172E+03 0.323E+04   -.303E+00 -.932E+00 -.232E+01   -.548E-02 -.163E-01 -.348E-01
   -.156E+02 0.135E+03 -.118E+04   0.158E+02 -.135E+03 0.118E+04   -.193E+00 -.487E+00 0.309E+00   0.139E-02 -.286E-01 -.863E-01
   -.712E+01 -.105E+03 -.106E+04   0.677E+01 0.105E+03 0.106E+04   0.345E+00 0.453E+00 -.643E-01   0.506E-02 -.152E-01 -.744E-01
   0.414E+02 -.323E+02 0.804E+03   -.408E+02 0.316E+02 -.804E+03   -.585E+00 0.667E+00 0.262E+00   -.553E-02 -.168E-01 -.811E-01
   -.244E+02 0.432E+02 0.956E+03   0.243E+02 -.433E+02 -.956E+03   0.119E+00 0.921E-01 0.127E+00   -.343E-02 -.107E-01 -.812E-01
   0.673E+02 -.120E+03 -.111E+04   -.666E+02 0.119E+03 0.111E+04   -.678E+00 0.138E+01 0.430E+00   0.924E-03 -.114E-01 -.793E-01
   0.206E+02 -.841E+02 0.319E+04   -.197E+02 0.846E+02 -.319E+04   -.879E+00 -.523E+00 0.247E+00   0.113E-01 0.211E-01 -.143E-01
   -.756E+02 -.947E+02 -.128E+04   0.755E+02 0.944E+02 0.128E+04   0.731E-01 0.237E+00 0.181E+00   0.284E-03 0.681E-02 -.678E-01
   -.742E+02 -.295E+02 -.320E+04   0.745E+02 0.285E+02 0.320E+04   -.311E+00 0.992E+00 -.536E+00   0.799E-02 0.462E-02 -.441E-01
   0.454E+00 -.147E+03 0.102E+04   -.506E+00 0.146E+03 -.102E+04   0.478E-01 0.448E+00 -.103E+00   0.564E-02 -.134E-01 -.748E-01
   0.371E+02 0.103E+03 -.121E+04   -.369E+02 -.102E+03 0.121E+04   -.177E+00 -.908E+00 0.999E+00   -.565E-02 -.253E-01 -.959E-01
   0.288E+01 0.176E+03 -.323E+04   -.342E+01 -.176E+03 0.323E+04   0.533E+00 -.467E+00 -.112E+01   0.105E-01 -.136E-01 -.332E-01
   0.981E+01 0.862E+02 0.963E+03   -.958E+01 -.860E+02 -.963E+03   -.234E+00 -.176E+00 -.150E+00   0.575E-02 0.247E-01 -.713E-01
   0.116E+02 0.516E+02 -.309E+04   -.115E+02 -.494E+02 0.309E+04   -.167E+00 -.222E+01 -.513E+00   -.290E-04 -.726E-02 -.309E-01
   -.490E+02 -.232E+02 -.117E+04   0.490E+02 0.226E+02 0.117E+04   -.366E-01 0.579E+00 0.502E-01   0.384E-03 0.133E-01 -.912E-01
   -.704E+01 -.520E+02 0.727E+03   0.698E+01 0.520E+02 -.727E+03   0.607E-01 -.321E-02 0.343E+00   -.430E-02 0.121E-01 -.852E-01
   0.133E+02 -.440E+02 0.313E+04   -.134E+02 0.444E+02 -.313E+04   0.333E-01 -.478E+00 -.442E+00   -.599E-02 0.262E-01 -.147E-01
   -.413E+02 0.120E+03 0.310E+04   0.417E+02 -.119E+03 -.310E+04   -.323E+00 -.970E+00 0.197E+01   -.428E-02 -.577E-02 -.321E-01
   -.590E+02 -.295E+02 0.872E+03   0.584E+02 0.292E+02 -.872E+03   0.541E+00 0.351E+00 0.837E+00   -.229E-02 -.170E-01 -.892E-01
   0.292E+02 0.520E+02 0.919E+03   -.299E+02 -.521E+02 -.919E+03   0.725E+00 0.130E+00 -.971E-01   -.519E-02 0.197E-01 -.715E-01
   0.133E+03 0.992E+02 -.318E+04   -.133E+03 -.992E+02 0.318E+04   0.879E-01 0.557E-01 -.236E+00   -.536E-02 -.711E-02 -.328E-01
   0.132E+03 0.383E+02 -.326E+04   -.133E+03 -.391E+02 0.326E+04   0.817E+00 0.831E+00 -.607E+00   -.106E-01 0.218E-02 -.400E-01
   0.162E+03 0.126E+03 -.110E+04   -.162E+03 -.126E+03 0.110E+04   -.190E+00 -.370E+00 -.333E-01   0.509E-02 0.174E-01 -.694E-01
   0.166E+03 0.746E+02 -.131E+04   -.165E+03 -.750E+02 0.131E+04   -.601E+00 0.407E+00 0.580E+00   0.697E-03 0.148E-01 -.797E-01
   -.106E+03 -.544E+02 -.129E+04   0.105E+03 0.550E+02 0.129E+04   0.119E+01 -.635E+00 0.770E+00   0.102E-02 0.174E-01 -.879E-01
   0.121E+02 -.381E+02 0.105E+04   -.120E+02 0.385E+02 -.105E+04   -.109E+00 -.392E+00 -.114E+01   -.455E-02 -.122E-01 -.812E-01
   0.155E+02 -.677E+02 0.905E+03   -.168E+02 0.692E+02 -.904E+03   0.137E+01 -.151E+01 -.757E+00   -.301E-02 0.198E-01 -.702E-01
   0.579E+01 -.517E+02 0.312E+04   -.556E+01 0.518E+02 -.312E+04   -.232E+00 -.581E-01 0.689E+00   -.103E-02 -.128E-01 -.152E-01
   0.328E+02 -.243E+03 -.318E+04   -.337E+02 0.244E+03 0.318E+04   0.870E+00 -.103E+01 -.143E+01   0.334E-02 0.700E-02 -.159E-01
   0.310E+02 -.637E+02 0.314E+04   -.313E+02 0.638E+02 -.314E+04   0.283E+00 -.179E+00 -.946E+00   0.559E-02 0.113E-01 -.104E-01
   0.263E+02 -.153E+02 -.119E+04   -.266E+02 0.148E+02 0.119E+04   0.338E+00 0.542E+00 0.173E+01   -.500E-03 0.147E-03 -.969E-01
   -.665E+02 -.532E+02 0.103E+04   0.660E+02 0.528E+02 -.103E+04   0.486E+00 0.409E+00 0.181E-01   -.167E-02 -.290E-01 -.840E-01
   -.721E+02 0.530E+02 -.102E+04   0.719E+02 -.533E+02 0.102E+04   0.193E+00 0.271E+00 -.132E+00   -.352E-02 0.144E-01 -.826E-01
   -.265E+02 -.103E+03 0.324E+04   0.257E+02 0.103E+03 -.324E+04   0.771E+00 -.526E-01 0.166E+01   -.857E-02 0.203E-01 -.162E-01
   0.547E+02 0.134E+03 0.314E+04   -.546E+02 -.135E+03 -.315E+04   -.173E+00 0.787E+00 0.974E+00   -.193E-02 -.150E-02 -.254E-01
   -.267E+02 0.106E+03 -.116E+04   0.266E+02 -.105E+03 0.116E+04   0.147E+00 -.112E+01 0.145E+01   -.475E-03 -.198E-01 -.974E-01
   0.129E+02 -.149E+01 -.321E+04   -.136E+02 0.442E+00 0.321E+04   0.731E+00 0.105E+01 -.321E+01   0.126E-01 -.384E-02 -.226E-01
   0.320E+02 -.698E+02 0.317E+04   -.321E+02 0.696E+02 -.317E+04   0.285E-02 0.204E+00 -.737E+00   0.114E-02 -.266E-01 -.274E-01
   0.529E+02 0.155E+03 0.312E+04   -.529E+02 -.156E+03 -.312E+04   -.671E-02 0.742E+00 0.605E+00   0.478E-02 0.201E-01 -.221E-01
   0.114E+03 -.773E+02 0.100E+04   -.113E+03 0.771E+02 -.999E+03   -.528E+00 0.219E+00 -.528E+00   -.249E-02 -.305E-01 -.766E-01
   -.279E+01 -.649E+02 0.922E+03   0.396E+01 0.652E+02 -.921E+03   -.118E+01 -.375E+00 -.784E+00   0.612E-02 0.180E-01 -.731E-01
   -.155E+03 -.460E+02 -.318E+04   0.155E+03 0.462E+02 0.318E+04   -.328E+00 -.259E+00 -.474E+00   0.191E-02 0.102E-01 -.343E-01
   -.689E+02 0.874E+02 0.906E+03   0.690E+02 -.879E+02 -.907E+03   -.159E+00 0.556E+00 0.236E+00   -.437E-02 0.142E-01 -.669E-01
   0.161E+02 0.110E+01 0.317E+04   -.160E+02 -.388E+00 -.317E+04   -.505E-01 -.698E+00 -.935E+00   0.293E-02 -.993E-02 -.155E-01
   -.445E+02 -.693E+02 0.312E+04   0.447E+02 0.692E+02 -.312E+04   -.175E+00 0.102E+00 -.626E+00   -.126E-01 0.659E-02 -.102E-01
   0.175E+02 0.306E+02 0.960E+03   -.175E+02 -.295E+02 -.958E+03   0.453E-02 -.115E+01 -.120E+01   0.676E-03 -.586E-02 -.831E-01
   -.571E+02 -.890E+02 -.113E+04   0.566E+02 0.899E+02 0.113E+04   0.501E+00 -.874E+00 0.491E+00   -.335E-02 -.167E-01 -.760E-01
   -.257E+02 -.132E+03 0.310E+04   0.257E+02 0.132E+03 -.310E+04   -.166E-02 0.204E-01 0.209E+00   -.659E-02 -.178E-01 -.165E-01
   0.376E+02 -.803E+02 -.104E+04   -.371E+02 0.805E+02 0.104E+04   -.504E+00 -.124E+00 0.867E+00   -.650E-02 0.337E-02 -.742E-01
   -.610E+02 -.541E+02 0.314E+04   0.619E+02 0.532E+02 -.313E+04   -.916E+00 0.937E+00 -.537E+00   -.336E-02 -.251E-01 -.197E-01
   0.142E+01 0.655E+02 0.848E+03   -.240E+01 -.651E+02 -.848E+03   0.989E+00 -.339E+00 0.578E+00   -.914E-02 0.244E-01 -.703E-01
   -.263E+02 -.159E+03 -.421E+04   0.240E+02 0.159E+03 0.420E+04   0.228E+01 -.137E+00 0.530E+01   0.576E-02 0.120E-01 -.234E-01
   -.187E+02 0.982E+02 0.408E+04   0.189E+02 -.983E+02 -.407E+04   -.207E+00 0.723E-01 -.464E+01   -.770E-02 0.204E-01 -.323E-01
   0.262E+02 -.175E+03 -.421E+04   -.254E+02 0.173E+03 0.421E+04   -.749E+00 0.184E+01 0.513E+01   -.148E-01 -.764E-02 -.276E-01
   -.308E+02 0.190E+03 0.441E+04   0.315E+02 -.190E+03 -.440E+04   -.700E+00 0.303E+00 -.666E+01   0.451E-02 0.171E-01 -.181E-01
   -.342E+02 0.305E+01 -.421E+04   0.343E+02 -.351E+01 0.421E+04   -.152E+00 0.463E+00 0.439E+01   0.170E-02 -.557E-03 -.286E-01
   -.246E+02 0.165E+03 0.130E+04   0.247E+02 -.165E+03 -.130E+04   -.108E+00 0.143E+00 0.692E+00   0.568E-02 0.300E-01 -.872E-01
   0.709E+02 -.426E+02 -.190E+04   -.709E+02 0.426E+02 0.190E+04   -.275E-01 -.874E-01 0.353E+01   0.700E-03 0.173E-02 -.124E-01
   0.283E+02 -.108E+03 -.717E+03   -.283E+02 0.109E+03 0.718E+03   -.344E-01 -.570E+00 -.899E+00   0.382E-02 0.249E-02 -.387E-01
   -.831E+02 0.305E+02 -.771E+03   0.839E+02 -.308E+02 0.771E+03   -.820E+00 0.291E+00 -.338E+00   0.223E-02 0.160E-02 -.553E-01
   0.121E+02 -.289E+02 0.185E+04   -.118E+02 0.290E+02 -.185E+04   -.286E+00 -.608E-01 -.275E+01   0.270E-02 0.970E-02 -.989E-02
   0.639E+02 0.428E+02 -.826E+03   -.647E+02 -.430E+02 0.827E+03   0.890E+00 0.125E+00 -.446E+00   -.149E-02 0.278E-02 -.517E-01
   -.377E+02 0.625E+02 -.193E+04   0.377E+02 -.624E+02 0.193E+04   -.506E-01 -.390E-01 0.397E+01   0.339E-02 0.443E-02 -.168E-01
   0.153E+02 0.365E+02 -.188E+04   -.153E+02 -.363E+02 0.188E+04   -.503E-01 -.174E+00 0.243E+01   0.113E-03 -.414E-02 -.257E-01
   0.247E+02 0.585E+02 0.686E+03   -.249E+02 -.585E+02 -.687E+03   0.231E+00 -.561E-01 0.997E+00   0.446E-02 0.817E-02 -.391E-01
   0.876E+01 0.319E+02 -.188E+04   -.893E+01 -.318E+02 0.188E+04   0.176E+00 -.716E-01 0.221E+01   0.300E-02 0.254E-02 -.170E-01
   -.620E+02 0.380E+02 -.706E+03   0.622E+02 -.381E+02 0.706E+03   -.141E+00 0.789E-01 -.563E+00   0.213E-02 0.889E-02 -.435E-01
   0.256E+02 0.595E+01 0.186E+04   -.258E+02 -.561E+01 -.185E+04   0.184E+00 -.326E+00 -.339E+01   -.359E-03 -.130E-01 -.171E-01
   -.950E+01 -.966E+00 0.186E+04   0.901E+01 0.113E+01 -.185E+04   0.491E+00 -.156E+00 -.261E+01   0.870E-03 -.413E-02 -.154E-01
   -.320E+02 -.373E+02 0.596E+03   0.323E+02 0.375E+02 -.597E+03   -.294E+00 -.120E+00 0.621E+00   -.235E-02 -.177E-01 -.493E-01
 -----------------------------------------------------------------------------------------------
   -.198E+01 0.330E+01 -.973E+00   -.782E-13 -.817E-12 -.682E-11   0.201E+01 -.335E+01 0.444E+01   -.192E-01 0.277E-01 -.347E+01
 
 
 POSITION                                       TOTAL-FORCE (eV/Angst)
 -----------------------------------------------------------------------------------
      0.10214      6.25257      6.93648        -0.000365      0.000530      0.003702
      1.44104     12.84621      7.12008         0.006798     -0.000516     -0.001926
      0.11899      0.38777      5.04691        -0.000589     -0.004711      0.000014
      1.36148      2.58697      4.95757         0.001897      0.001597      0.004692
      1.39443     12.81975      2.94997        -0.002863     -0.001120      0.000458
      1.39939      4.06351      2.82903        -0.002967     -0.000800     -0.002301
      4.06108      2.59819      4.93670         0.000901     -0.001029      0.000222
      5.37600      9.23850      0.71396        -0.002188      0.001705      0.000527
      0.11270      4.70300      4.98200        -0.000039      0.001529     -0.000068
      5.30620     10.56815      7.03425         0.002312      0.000209     -0.007011
      4.01400      3.94036      2.80774         0.001256      0.000178      0.000373
      2.71949      0.42576      4.98540        -0.001021     -0.001391     -0.000055
      6.60401     12.78488      7.09469        -0.000612     -0.005909     -0.002482
      6.60905      8.41515      2.76408         0.000750      0.001621      0.003634
      5.40868      6.40239      6.82391         0.006740     -0.005410     -0.002350
      5.35466      9.11668      4.89906         0.001714     -0.001105      0.000142
      0.13123     10.63989      2.91413        -0.000528     -0.001272      0.000943
      0.14816      9.22914      0.79756        -0.001200      0.002782      0.000172
      2.77616      4.70433      0.75898        -0.002166      0.002147     -0.000966
      6.60066     12.80471      2.88815        -0.000929     -0.001600     -0.001156
      0.10066      6.16997      2.77054         0.000388      0.001470      0.001852
      4.02491      8.44879      6.93625         0.003030     -0.004585      0.000349
      2.75213     10.58934      7.13045         0.001546      0.001623     -0.006146
      4.04557      6.92305      4.85390         0.003684      0.003315     -0.000513
      2.74953      9.16345      4.97562         0.000859      0.000865      0.001676
      0.13620      9.11577      4.89613         0.000378     -0.000174      0.001143
      6.64303      3.96888      2.82980        -0.001701     -0.000660     -0.000432
      2.64626     10.63599      2.83505         0.002474      0.001932      0.002735
      2.66186      0.32667      0.87799        -0.003183      0.001033      0.001604
      1.47226      4.12104      7.06698         0.002445     -0.003272     -0.000117
      6.60069     11.36966      0.83367        -0.001369      0.003342      0.001847
      4.00802     11.27477      4.89479        -0.000275     -0.002102     -0.000613
      5.30711      1.82910      2.83333        -0.002290      0.001700      0.002567
      6.64004      6.94912      4.80263         0.000250     -0.000760      0.000220
      2.70601      9.20394      0.66146         0.000203      0.000283      0.001214
      0.11234      4.68406      0.74371        -0.002293      0.004216      0.003341
      5.29946      0.39474      4.92850        -0.002298     -0.000571     -0.001923
      5.26896      1.73552      6.97832         0.002778     -0.002256      0.000348
      4.00493      2.44281      0.80510        -0.002724      0.002219     -0.001206
      6.63264      7.02818      0.68902        -0.000164     -0.000314     -0.002185
      2.70699      1.82840      2.87316        -0.004650      0.000840      0.003332
      5.38592     10.60821      2.83443        -0.002885      0.001241      0.000751
      6.65905      8.45202      6.93328        -0.002799      0.000383     -0.003496
      2.74467      6.22366      2.74454        -0.003142      0.001824     -0.000746
      5.29662      0.33975      0.82568        -0.001313      0.004431     -0.000221
      1.43896     11.34510      0.85154        -0.000960      0.001460      0.004151
      4.00960     12.80617      2.87850        -0.003363      0.004649     -0.001776
      6.53707      2.60034      4.95212         0.000704     -0.000053      0.000880
      0.16424      0.33291      0.83540        -0.000826      0.003076     -0.000792
      5.39551      4.77141      4.84763         0.000406     -0.001731     -0.004828
      6.65547      2.46067      0.77191        -0.001775      0.003029      0.003704
      1.38438      8.45672      2.78684         0.000943      0.000028      0.003304
      4.59263      4.14322      7.09205         0.001049     -0.005900     -0.000769
      1.36858      6.92926      0.70781        -0.001172      0.001800     -0.000594
      7.70094      1.99829      7.04351         0.004515     -0.004728      0.000167
      4.16852      7.03038      0.24388        -0.001688      0.001146     -0.001446
      2.70608      2.01324      7.07536        -0.000999     -0.002710     -0.001397
      3.94438      8.53877      2.74873         0.000673     -0.001995      0.000968
      2.84979      6.17532      7.11362         0.001154     -0.002604     -0.000754
      2.76407      4.68581      4.94517         0.000390     -0.001519     -0.000048
      6.52556     11.36045      4.98436        -0.001367      0.000816     -0.002488
      4.04721     11.36729      0.92538        -0.002176      0.004933      0.000667
      1.45771     11.33102      5.07512         0.000358      0.000649     -0.001928
      0.11818     10.66263      7.16646         0.004052     -0.003784     -0.002127
      4.04474     12.69100      6.89050        -0.000099      0.001149     -0.000821
      5.30811      6.19160      2.67199         0.002767      0.001580      0.001137
      1.47679      8.33645      6.96945         0.006217     -0.005139      0.000304
      1.38873      6.91921      4.78336         0.001928     -0.000628      0.000389
      1.46330      2.54710      0.82587         0.000226      0.001268     -0.001274
      5.32439      4.58318      0.75142        -0.002027      0.001673      0.000833
      0.09496      1.79825      2.89161        -0.002783      0.000076      0.002597
 -----------------------------------------------------------------------------------
    total drift:                                0.012055     -0.014534     -0.001256


--------------------------------------------------------------------------------------------------------



  FREE ENERGIE OF THE ION-ELECTRON SYSTEM (eV)
  ---------------------------------------------------
  free  energy   TOTEN  =      -493.76584240 eV

  energy  without entropy=     -493.77103498  energy(sigma->0) =     -493.76714055
 
 d Force = 0.5338770E-04[ 0.437E-04, 0.631E-04]  d Energy = 0.5835408E-04-0.497E-05
 d Force =-0.4381940E+01[-0.438E+01,-0.438E+01]  d Ewald  =-0.4381939E+01-0.825E-06


--------------------------------------------------------------------------------------------------------


    POTLOK:  cpu time    0.0637: real time    0.0637


--------------------------------------------------------------------------------------------------------




--------------------------------------------------------------------------------------------------------


  
 reached required accuracy - stopping structural energy minimisation
     LOOP+:  cpu time   51.9135: real time   51.9288
    4ORBIT:  cpu time    0.0000: real time    0.0000

 total amount of memory used by VASP on root node    90117. kBytes
========================================================================

   base      :      30000. kBytes
   nonlr-proj:       4401. kBytes
   fftplans  :       2058. kBytes
   grid      :       5400. kBytes
   one-center:         93. kBytes
   wavefun   :      48165. kBytes
 
  
  
 General timing and accounting informations for this job:
 ========================================================
  
                  Total CPU time used (sec):      829.233
                            User time (sec):      826.630
                          System time (sec):        2.603
                         Elapsed time (sec):      829.779
  
                   Maximum memory used (kb):      169628.
                   Average memory used (kb):           0.
  
                          Minor page faults:        57654
                          Major page faults:            0
                 Voluntary context switches:        10563
