 vasp.5.4.1 05Feb16 (build Mar 19 2020 08:54:17) complex                        
  
 executed on           IFC91_ompi date 2022.03.11  12:03:19
 running on   96 total cores
 distrk:  each k-point on   96 cores,    1 groups
 distr:  one band on NCORES_PER_BAND=  24 cores,    4 groups


--------------------------------------------------------------------------------------------------------


 INCAR:
 POTCAR:    PAW_PBE Ni 02Aug2007                  
 POTCAR:    PAW_PBE Cl 06Sep2000                  

 ----------------------------------------------------------------------------- 
|                                                                             |
|           W    W    AA    RRRRR   N    N  II  N    N   GGGG   !!!           |
|           W    W   A  A   R    R  NN   N  II  NN   N  G    G  !!!           |
|           W    W  A    A  R    R  N N  N  II  N N  N  G       !!!           |
|           W WW W  AAAAAA  RRRRR   N  N N  II  N  N N  G  GGG   !            |
|           WW  WW  A    A  R   R   N   NN  II  N   NN  G    G                |
|           W    W  A    A  R    R  N    N  II  N    N   GGGG   !!!           |
|                                                                             |
|      For optimal performance we recommend to set                            |
|        NCORE= 4 - approx SQRT( number of cores)                             |
|      NCORE specifies how many cores store one orbital (NPAR=cpu/NCORE).     |
|      This setting can  greatly improve the performance of VASP for DFT.     |
|      The default, NPAR=number of cores might be grossly inefficient         |
|      on modern multi-core architectures or massively parallel machines.     |
|      Do your own testing !!!!                                               |
|      Unfortunately you need to use the default for GW and RPA calculations. |
|      (for HF NCORE is supported but not extensively tested yet)             |
|                                                                             |
 ----------------------------------------------------------------------------- 

 POTCAR:    PAW_PBE Ni 02Aug2007                  
   VRHFIN =Ni:                                                                  
   LEXCH  = PE                                                                  
   EATOM  =  1077.6739 eV,   79.2068 Ry                                         
                                                                                
   TITEL  = PAW_PBE Ni 02Aug2007                                                
   LULTRA =        F    use ultrasoft PP ?                                      
   IUNSCR =        1    unscreen: 0-lin 1-nonlin 2-no                           
   RPACOR =    2.000    partial core radius                                     
   POMASS =   58.690; ZVAL   =   10.000    mass and valenz                      
   RCORE  =    2.300    outmost cutoff radius                                   
   RWIGS  =    2.430; RWIGS  =    1.286    wigner-seitz radius (au A)           
   ENMAX  =  269.532; ENMIN  =  202.149 eV                                      
   RCLOC  =    1.201    cutoff for local pot                                    
   LCOR   =        T    correct aug charges                                     
   LPAW   =        T    paw PP                                                  
   EAUG   =  544.565                                                            
   DEXC   =    0.000                                                            
   RMAX   =    2.357    core radius for proj-oper                               
   RAUG   =    1.300    factor for augmentation sphere                          
   RDEP   =    2.390    radius for radial grids                                 
   RDEPT  =    1.838    core radius for aug-charge                              
                                                                                
   Atomic configuration                                                         
    9 entries                                                                   
     n  l   j            E        occ.                                          
     1  0  0.50     -8206.4253   2.0000                                         
     2  0  0.50      -976.1748   2.0000                                         
     2  1  1.50      -839.0571   6.0000                                         
     3  0  0.50      -105.9991   2.0000                                         
     3  1  1.50       -66.4603   6.0000                                         
     3  2  2.50        -4.6458   9.0000                                         
     4  0  0.50        -4.4926   1.0000                                         
     4  1  1.50        -4.0817   0.0000                                         
     4  3  2.50        -1.3606   0.0000                                         
   Description                                                                  
     l       E           TYP  RCUT    TYP  RCUT                                 
     2     -4.6457903     23  2.300                                             
     2     -6.0063729     23  2.300                                             
     0     -4.4925590     23  2.300                                             
     0      5.0102601     23  2.300                                             
     1     -2.7211652     23  2.300                                             
     1     16.5183231     23  2.300                                             
  local pseudopotential read in
  partial core-charges read in
  partial kinetic energy density read in
  atomic valenz-charges read in
  non local Contribution for L=           2  read in
    real space projection operators read in
  non local Contribution for L=           2  read in
    real space projection operators read in
  non local Contribution for L=           0  read in
    real space projection operators read in
  non local Contribution for L=           0  read in
    real space projection operators read in
  non local Contribution for L=           1  read in
    real space projection operators read in
  non local Contribution for L=           1  read in
    real space projection operators read in
    PAW grid and wavefunctions read in
 
   number of l-projection  operators is LMAX  =           6
   number of lm-projection operators is LMMAX =          18
 
 POTCAR:    PAW_PBE Cl 06Sep2000                  
   VRHFIN =Cl: s2p5                                                             
   LEXCH  = PE                                                                  
   EATOM  =   409.7259 eV,   30.1140 Ry                                         
                                                                                
   TITEL  = PAW_PBE Cl 06Sep2000                                                
   LULTRA =        F    use ultrasoft PP ?                                      
   IUNSCR =        1    unscreen: 0-lin 1-nonlin 2-no                           
   RPACOR =    1.500    partial core radius                                     
   POMASS =   35.453; ZVAL   =    7.000    mass and valenz                      
   RCORE  =    1.900    outmost cutoff radius                                   
   RWIGS  =    2.100; RWIGS  =    1.111    wigner-seitz radius (au A)           
   ENMAX  =  262.472; ENMIN  =  196.854 eV                                      
   ICORE  =        2    local potential                                         
   LCOR   =        T    correct aug charges                                     
   LPAW   =        T    paw PP                                                  
   EAUG   =  356.192                                                            
   DEXC   =    0.000                                                            
   RMAX   =    1.945    core radius for proj-oper                               
   RAUG   =    1.300    factor for augmentation sphere                          
   RDEP   =    2.020    radius for radial grids                                 
   RDEPT  =    1.678    core radius for aug-charge                              
                                                                                
   Atomic configuration                                                         
    6 entries                                                                   
     n  l   j            E        occ.                                          
     1  0  0.50     -2751.1850   2.0000                                         
     2  0  0.50      -252.6861   2.0000                                         
     2  1  1.50      -191.6157   6.0000                                         
     3  0  0.50       -20.6916   2.0000                                         
     3  1  0.50        -8.5949   5.0000                                         
     3  2  1.50        -8.1635   0.0000                                         
   Description                                                                  
     l       E           TYP  RCUT    TYP  RCUT                                 
     0    -20.6915656     23  1.900                                             
     0    -22.0521482     23  1.900                                             
     1     -8.5948577     23  1.900                                             
     1     -5.3847331     23  1.900                                             
     2     -8.1634956     23  1.900                                             
  local pseudopotential read in
  partial core-charges read in
  partial kinetic energy density read in
  atomic valenz-charges read in
  non local Contribution for L=           0  read in
    real space projection operators read in
  non local Contribution for L=           0  read in
    real space projection operators read in
  non local Contribution for L=           1  read in
    real space projection operators read in
  non local Contribution for L=           1  read in
    real space projection operators read in
    PAW grid and wavefunctions read in
 
   number of l-projection  operators is LMAX  =           4
   number of lm-projection operators is LMMAX =           8
 

 ----------------------------------------------------------------------------- 
|                                                                             |
|  ADVICE TO THIS USER RUNNING 'VASP/VAMP'   (HEAR YOUR MASTER'S VOICE ...):  |
|                                                                             |
|      You have a (more or less) 'small supercell' and for smaller cells      |
|      it is recommended  to use the reciprocal-space projection scheme!      |
|      The real space optimization is not  efficient for small cells and it   |
|      is also less accurate ...                                              |
|      Therefore set LREAL=.FALSE. in the  INCAR file                         |
|                                                                             |
 ----------------------------------------------------------------------------- 

 Optimization of the real space projectors (new method)

 maximal supplied QI-value         = 16.25
 optimisation between [QCUT,QGAM] = [ 10.73, 21.61] = [ 32.22,130.83] Ry 
 Optimized for a Real-space Cutoff    1.34 Angstroem

   l    n(q)    QCUT    max X(q) W(low)/X(q) W(high)/X(q)  e(spline) 
   2      8    10.726    60.317    0.47E-03    0.39E-03    0.97E-07
   2      8    10.726    55.921    0.48E-03    0.39E-03    0.10E-06
   0      9    10.726    51.690    0.35E-03    0.32E-03    0.97E-07
   0      9    10.726    30.015    0.31E-03    0.29E-03    0.88E-07
   1      8    10.726    18.849    0.34E-03    0.47E-04    0.17E-06
   1      8    10.726    14.624    0.29E-03    0.31E-04    0.15E-06
 Optimization of the real space projectors (new method)

 maximal supplied QI-value         = 19.84
 optimisation between [QCUT,QGAM] = [ 10.71, 21.63] = [ 32.15,130.99] Ry 
 Optimized for a Real-space Cutoff    1.19 Angstroem

   l    n(q)    QCUT    max X(q) W(low)/X(q) W(high)/X(q)  e(spline) 
   0      8    10.715   168.010    0.38E-03    0.52E-04    0.59E-07
   0      8    10.715   164.674    0.37E-03    0.50E-04    0.57E-07
   1      7    10.715    69.222    0.20E-03    0.59E-03    0.70E-07
   1      7    10.715    56.786    0.19E-03    0.58E-03    0.68E-07
  PAW_PBE Ni 02Aug2007                  :
 energy of atom  1       EATOM=-1077.6739
 kinetic energy error for atom=    0.0038 (will be added to EATOM!!)
  PAW_PBE Cl 06Sep2000                  :
 energy of atom  2       EATOM= -409.7259
 kinetic energy error for atom=    0.0057 (will be added to EATOM!!)
 
 
 POSCAR: Ni Cell                                 
  positions in direct lattice
  No initial velocities read in
 exchange correlation table for  LEXCH =        8
   RHO(1)=    0.500       N(1)  =     2000
   RHO(2)=  100.500       N(2)  =     4000
 


--------------------------------------------------------------------------------------------------------


 ion  position               nearest neighbor table
   1  0.500  0.500  0.500-   2 2.25   3 2.25
   2  0.500  0.500  0.650-   1 2.25
   3  0.500  0.650  0.500-   1 2.25
 
  LATTYP: Found a simple cubic cell.
 ALAT       =    15.0000000000
  
  Lattice vectors:
  
 A1 = (  15.0000000000,   0.0000000000,   0.0000000000)
 A2 = (   0.0000000000,  15.0000000000,   0.0000000000)
 A3 = (   0.0000000000,   0.0000000000,  15.0000000000)


Analysis of symmetry for initial positions (statically):
=====================================================================
 Subroutine PRICEL returns:
 Original cell was already a primitive cell.
 

 Routine SETGRP: Setting up the symmetry group for a 
 simple cubic supercell.


 Subroutine GETGRP returns: Found  4 space group operations
 (whereof  4 operations were pure point group operations)
 out of a pool of 48 trial point group operations.


The static configuration has the point symmetry C_2v.


Analysis of symmetry for dynamics (positions and initial velocities):
=====================================================================
 Subroutine PRICEL returns:
 Original cell was already a primitive cell.
 

 Routine SETGRP: Setting up the symmetry group for a 
 simple cubic supercell.


 Subroutine GETGRP returns: Found  4 space group operations
 (whereof  4 operations were pure point group operations)
 out of a pool of 48 trial point group operations.


The dynamic configuration has the point symmetry C_2v.


Analysis of structural, dynamic, and magnetic symmetry:
=====================================================================
 Subroutine PRICEL returns:
 Original cell was already a primitive cell.
 

 Routine SETGRP: Setting up the symmetry group for a 
 simple cubic supercell.


 Subroutine GETGRP returns: Found  4 space group operations
 (whereof  4 operations were pure point group operations)
 out of a pool of 48 trial point group operations.


The magnetic configuration has the point symmetry C_2v.


 Subroutine INISYM returns: Found  4 space group operations
 (whereof  4 operations are pure point group operations),
 and found     1 'primitive' translations

 
 
 KPOINTS: k-points                                

Automatic generation of k-mesh.
Space group operators:
 irot       det(A)        alpha          n_x          n_y          n_z        tau_x        tau_y        tau_z
    1     1.000000     0.000000     1.000000     0.000000     0.000000     0.000000     0.000000     0.000000
    2     1.000000   180.000000     0.000000     0.707107     0.707107     0.000000     0.000000     0.000000
    3    -1.000000   180.000000     1.000000     0.000000     0.000000     0.000000     0.000000     0.000000
    4    -1.000000   180.000000     0.000000    -0.707107     0.707107     0.000000     0.000000     0.000000
 
 Subroutine IBZKPT returns following result:
 ===========================================
 
 Found      1 irreducible k-points:
 
 Following reciprocal coordinates:
            Coordinates               Weight
  0.000000  0.000000  0.000000      1.000000
 
 Following cartesian coordinates:
            Coordinates               Weight
  0.000000  0.000000  0.000000      1.000000
 


--------------------------------------------------------------------------------------------------------




 Dimension of arrays:
   k-points           NKPTS =      1   k-points in BZ     NKDIM =      1   number of bands    NBANDS=     20
   number of dos      NEDOS =    301   number of ions     NIONS =      3
   non local maximal  LDIM  =      6   non local SUM 2l+1 LMDIM =     18
   total plane-waves  NPLWV = 512000
   max r-space proj   IRMAX =   1581   max aug-charges    IRDMAX=   5116
   dimension x,y,z NGX =    80 NGY =   80 NGZ =   80
   dimension x,y,z NGXF=   160 NGYF=  160 NGZF=  160
   support grid    NGXF=   160 NGYF=  160 NGZF=  160
   ions per type =               1   2
 NGX,Y,Z   is equivalent  to a cutoff of   8.87,  8.87,  8.87 a.u.
 NGXF,Y,Z  is equivalent  to a cutoff of  17.73, 17.73, 17.73 a.u.


 I would recommend the setting:
   dimension x,y,z NGX =    78 NGY =   78 NGZ =   78
 SYSTEM =  clean (100) surface                     
 POSCAR =  Ni Cell                                 

 Startparameter for this run:
   NWRITE =      2    write-flag & timer
   PREC   = normal    normal or accurate (medium, high low for compatibility)
   ISTART =      0    job   : 0-new  1-cont  2-samecut
   ICHARG =      2    charge: 1-file 2-atom 10-const
   ISPIN  =      2    spin polarized calculation?
   LNONCOLLINEAR =      F non collinear calculations
   LSORBIT =      F    spin-orbit coupling
   INIWAV =      1    electr: 0-lowe 1-rand  2-diag
   LASPH  =      F    aspherical Exc in radial PAW
   METAGGA=      F    non-selfconsistent MetaGGA calc.

 Electronic Relaxation 1
   ENCUT  =  450.0 eV  33.07 Ry    5.75 a.u.  25.95 25.95 25.95*2*pi/ulx,y,z
   ENINI  =  450.0     initial cutoff
   ENAUG  =  544.6 eV  augmentation charge cutoff
   NELM   =     60;   NELMIN=  2; NELMDL= -5     # of ELM steps 
   EDIFF  = 0.1E-05   stopping-criterion for ELM
   LREAL  =      T    real-space projection
   NLSPLINE    = F    spline interpolate recip. space projectors
   LCOMPAT=      F    compatible to vasp.4.4
   GGA_COMPAT  = T    GGA compatible to vasp.4.4-vasp.4.6
   LMAXPAW     = -100 max onsite density
   LMAXMIX     =    2 max onsite mixed and CHGCAR
   VOSKOWN=      0    Vosko Wilk Nusair interpolation
   ROPT   =   -0.00050  -0.00050
 Ionic relaxation
   EDIFFG = -.1E-01   stopping-criterion for IOM
   NSW    =    250    number of steps for IOM
   NBLOCK =      1;   KBLOCK =    250    inner block; outer block 
   IBRION =      2    ionic relax: 0-MD 1-quasi-New 2-CG
   NFREE  =      1    steps in history (QN), initial steepest desc. (CG)
   ISIF   =      2    stress and relaxation
   IWAVPR =     11    prediction:  0-non 1-charg 2-wave 3-comb
   ISYM   =      2    0-nonsym 1-usesym 2-fastsym
   LCORR  =      T    Harris-Foulkes like correction to forces

   POTIM  = 0.1000    time-step for ionic-motion
   TEIN   =    0.0    initial temperature
   TEBEG  =    0.0;   TEEND  =   0.0 temperature during run
   SMASS  =  -3.00    Nose mass-parameter (am)
   estimated Nose-frequenzy (Omega)   =  0.10E-29 period in steps =****** mass=  -0.514E-26a.u.
   SCALEE = 1.0000    scale energy and forces
   NPACO  =    256;   APACO  = 16.0  distance and # of slots for P.C.
   PSTRESS=    0.0 pullay stress

  Mass of Ions in am
   POMASS =  58.69 35.45
  Ionic Valenz
   ZVAL   =  10.00  7.00
  Atomic Wigner-Seitz radii
   RWIGS  =  -1.00 -1.00
  virtual crystal weights 
   VCA    =   1.00  1.00
   NELECT =      24.0000    total number of electrons
   NUPDOWN=      -1.0000    fix difference up-down

 DOS related values:
   EMIN   =  10.00;   EMAX   =-10.00  energy-range for DOS
   EFERMI =   0.00
   ISMEAR =     2;   SIGMA  =   0.20  broadening in eV -4-tet -1-fermi 0-gaus

 Electronic relaxation 2 (details)
   IALGO  =     68    algorithm
   LDIAG  =      T    sub-space diagonalisation (order eigenvalues)
   LSUBROT=      F    optimize rotation matrix (better conditioning)
   TURBO    =      0    0=normal 1=particle mesh
   IRESTART =      0    0=no restart 2=restart with 2 vectors
   NREBOOT  =      0    no. of reboots
   NMIN     =      0    reboot dimension
   EREF     =   0.00    reference energy to select bands
   IMIX   =      4    mixing-type and parameters
     AMIX     =   0.40;   BMIX     =  1.00
     AMIX_MAG =   1.60;   BMIX_MAG =  1.00
     AMIN     =   0.10
     WC   =   100.;   INIMIX=   1;  MIXPRE=   1;  MAXMIX= -45

 Intra band minimization:
   WEIMIN = 0.0010     energy-eigenvalue tresh-hold
   EBREAK =  0.12E-07  absolut break condition
   DEPER  =   0.30     relativ break condition  

   TIME   =   0.40     timestep for ELM

  volume/ion in A,a.u.               =    1125.00      7591.87
  Fermi-wavevector in a.u.,A,eV,Ry     =   0.314814  0.594912  1.348444  0.099108
  Thomas-Fermi vector in A             =   1.196412
 
 Write flags
   LWAVE  =      F    write WAVECAR
   LCHARG =      F    write CHGCAR
   LVTOT  =      F    write LOCPOT, total local potential
   LVHAR  =      F    write LOCPOT, Hartree potential only
   LELF   =      F    write electronic localiz. function (ELF)
   LORBIT =      0    0 simple, 1 ext, 2 COOP (PROOUT)


 Dipole corrections
   LMONO  =      F    monopole corrections only (constant potential shift)
   LDIPOL =      F    correct potential (dipole corrections)
   IDIPOL =      0    1-x, 2-y, 3-z, 4-all directions 
   EPSILON=  1.0000000 bulk dielectric constant

 Exchange correlation treatment:
   GGA     =    --    GGA type
   LEXCH   =     8    internal setting for exchange type
   VOSKOWN=      0    Vosko Wilk Nusair interpolation
   LHFCALC =     F    Hartree Fock is set to
   LHFONE  =     F    Hartree Fock one center treatment
   AEXX    =    0.0000 exact exchange contribution

 Linear response parameters
   LEPSILON=     F    determine dielectric tensor
   LRPA    =     F    only Hartree local field effects (RPA)
   LNABLA  =     F    use nabla operator in PAW spheres
   LVEL    =     F    velocity operator in full k-point grid
   LINTERFAST=   F  fast interpolation
   KINTER  =     0    interpolate to denser k-point grid
   CSHIFT  =0.1000    complex shift for real part using Kramers Kronig
   OMEGAMAX=  -1.0    maximum frequency
   DEG_THRESHOLD= 0.2000000E-02 threshold for treating states as degnerate
   RTIME   =    0.100 relaxation time in fs

 Orbital magnetization related:
   ORBITALMAG=     F  switch on orbital magnetization
   LCHIMAG   =     F  perturbation theory with respect to B field
   DQ        =  0.001000  dq finite difference perturbation B field



--------------------------------------------------------------------------------------------------------


 conjugate gradient relaxation of ions
 charge density and potential will be updated during run
 spin polarized calculation
 RMM-DIIS sequential band-by-band and
  variant of blocked Davidson during initial phase
 perform sub-space diagonalisation
    before iterative eigenvector-optimisation
 modified Broyden-mixing scheme, WC =      100.0
 initial mixing is a Kerker type mixing with AMIX =  0.4000 and BMIX =      1.0000
 Hartree-type preconditioning will be used
 using additional bands            8
 real space projection scheme for non local part
 use partial core corrections
 calculate Harris-corrections to forces 
   (improved forces if not selfconsistent)
 use gradient corrections 
 use of overlap-Matrix (Vanderbilt PP)
 Methfessel and Paxton  Order N= 2 SIGMA  =   0.20


--------------------------------------------------------------------------------------------------------


  energy-cutoff  :      450.00
  volume of cell :     3375.00
      direct lattice vectors                 reciprocal lattice vectors
    15.000000000  0.000000000  0.000000000     0.066666667  0.000000000  0.000000000
     0.000000000 15.000000000  0.000000000     0.000000000  0.066666667  0.000000000
     0.000000000  0.000000000 15.000000000     0.000000000  0.000000000  0.066666667

  length of vectors
    15.000000000 15.000000000 15.000000000     0.066666667  0.066666667  0.066666667


 
 k-points in units of 2pi/SCALE and weight: k-points                                
   0.00000000  0.00000000  0.00000000       1.000
 
 k-points in reciprocal lattice and weights: k-points                                
   0.00000000  0.00000000  0.00000000       1.000
 
 position of ions in fractional coordinates (direct lattice) 
   0.50000000  0.50000000  0.50000000
   0.50000000  0.50000000  0.65000000
   0.50000000  0.65000000  0.50000000
 
 position of ions in cartesian coordinates  (Angst):
   7.50000000  7.50000000  7.50000000
   7.50000000  7.50000000  9.75000000
   7.50000000  9.75000000  7.50000000
 


--------------------------------------------------------------------------------------------------------


 k-point  1 :   0.0000 0.0000 0.0000  plane waves:   72935

 maximum and minimum number of plane-waves per node :      3049     3028

 maximum number of plane-waves:     72935
 maximum index in each direction: 
   IXMAX=   25   IYMAX=   25   IZMAX=   25
   IXMIN=  -25   IYMIN=  -25   IZMIN=  -25

 WARNING: aliasing errors must be expected set NGX to 102 to avoid them
 WARNING: aliasing errors must be expected set NGY to 102 to avoid them
 WARNING: aliasing errors must be expected set NGZ to 102 to avoid them
 aliasing errors are usually negligible using standard VASP settings
 and one can safely disregard these warnings

 real space projection operators:
  total allocation   :        338.98 KBytes
  max/ min on nodes  :         37.77          0.00


 parallel 3D FFT for wavefunctions:
    minimum data exchange during FFTs selected (reduces bandwidth)
 parallel 3D FFT for charge:
    minimum data exchange during FFTs selected (reduces bandwidth)


 total amount of memory used by VASP on root node    39262. kBytes
========================================================================

   base      :      30000. kBytes
   nonlr-proj:         79. kBytes
   fftplans  :       2467. kBytes
   grid      :       6195. kBytes
   one-center:         31. kBytes
   wavefun   :        490. kBytes
 
     INWAV:  cpu time    0.0000: real time    0.0000
 Broyden mixing: mesh for mixing (old mesh)
   NGX = 51   NGY = 51   NGZ = 51
  (NGX  =160   NGY  =160   NGZ  =160)
  gives a total of 132651 points

 initial charge density was supplied:
 charge density of overlapping atoms calculated
 number of electron      24.0000000 magnetization       3.0000000
 keeping initial charge density in first step


--------------------------------------------------------------------------------------------------------


 Maximum index for non-local projection operator            0
 Maximum index for augmentation-charges            0 (set IRDMAX)


--------------------------------------------------------------------------------------------------------


 First call to EWALD:  gamma=   0.118
 Maximum number of real-space cells 3x 3x 3
 Maximum number of reciprocal cells 3x 3x 3

 FEWALD executed in parallel
    FEWALD:  cpu time    0.0032: real time    0.0038


----------------------------------------- Iteration    1(   1)  ---------------------------------------


    POTLOK:  cpu time    0.0825: real time    0.0886
    SETDIJ:  cpu time    0.0088: real time    0.0102
     EDDAV:  cpu time    0.1557: real time    0.1906
       DOS:  cpu time    0.0055: real time    0.0068
    --------------------------------------------
      LOOP:  cpu time    0.2562: real time    0.3042

 eigenvalue-minimisations  :   112
 total energy-change (2. order) : 0.1314686E+03  (-0.4578670E+03)
 number of electron      24.0000000 magnetization       3.0000000
 augmentation part       24.0000000 magnetization       3.0000000

 Free energy of the ion-electron system (eV)
  ---------------------------------------------------
  alpha Z        PSCENC =         0.79176686
  Ewald energy   TEWEN  =       344.18926381
  -Hartree energ DENC   =     -2023.08873437
  -exchange      EXHF   =         0.00000000
  -V(xc)+E(xc)   XCENC  =        69.49114189
  PAW double counting   =      1613.21348186    -1680.27202221
  entropy T*S    EENTRO =        -0.04128159
  eigenvalues    EBANDS =       -89.92545814
  atomic energy  EATOM  =      1897.11043396
  Solvation  Ediel_sol  =         0.00000000
  ---------------------------------------------------
  free energy    TOTEN  =       131.46859208 eV

  energy without entropy =      131.50987367  energy(sigma->0) =      131.47891248


--------------------------------------------------------------------------------------------------------




----------------------------------------- Iteration    1(   2)  ---------------------------------------


     EDDAV:  cpu time    0.1115: real time    0.1115
       DOS:  cpu time    0.0003: real time    0.0003
    --------------------------------------------
      LOOP:  cpu time    0.1137: real time    0.1194

 eigenvalue-minimisations  :   152
 total energy-change (2. order) :-0.1080351E+03  (-0.1055933E+03)
 number of electron      24.0000000 magnetization       3.0000000
 augmentation part       24.0000000 magnetization       3.0000000

 Free energy of the ion-electron system (eV)
  ---------------------------------------------------
  alpha Z        PSCENC =         0.79176686
  Ewald energy   TEWEN  =       344.18926381
  -Hartree energ DENC   =     -2023.08873437
  -exchange      EXHF   =         0.00000000
  -V(xc)+E(xc)   XCENC  =        69.49114189
  PAW double counting   =      1613.21348186    -1680.27202221
  entropy T*S    EENTRO =         0.00482520
  eigenvalues    EBANDS =      -198.00662974
  atomic energy  EATOM  =      1897.11043396
  Solvation  Ediel_sol  =         0.00000000
  ---------------------------------------------------
  free energy    TOTEN  =        23.43352727 eV

  energy without entropy =       23.42870207  energy(sigma->0) =       23.43232097


--------------------------------------------------------------------------------------------------------




----------------------------------------- Iteration    1(   3)  ---------------------------------------


     EDDAV:  cpu time    0.0860: real time    0.0860
       DOS:  cpu time    0.0002: real time    0.0002
    --------------------------------------------
      LOOP:  cpu time    0.0872: real time    0.0930

 eigenvalue-minimisations  :   112
 total energy-change (2. order) :-0.3108186E+02  (-0.3051237E+02)
 number of electron      24.0000000 magnetization       3.0000000
 augmentation part       24.0000000 magnetization       3.0000000

 Free energy of the ion-electron system (eV)
  ---------------------------------------------------
  alpha Z        PSCENC =         0.79176686
  Ewald energy   TEWEN  =       344.18926381
  -Hartree energ DENC   =     -2023.08873437
  -exchange      EXHF   =         0.00000000
  -V(xc)+E(xc)   XCENC  =        69.49114189
  PAW double counting   =      1613.21348186    -1680.27202221
  entropy T*S    EENTRO =         0.03737800
  eigenvalues    EBANDS =      -229.12104678
  atomic energy  EATOM  =      1897.11043396
  Solvation  Ediel_sol  =         0.00000000
  ---------------------------------------------------
  free energy    TOTEN  =        -7.64833697 eV

  energy without entropy =       -7.68571497  energy(sigma->0) =       -7.65768147


--------------------------------------------------------------------------------------------------------




----------------------------------------- Iteration    1(   4)  ---------------------------------------


     EDDAV:  cpu time    0.0724: real time    0.0724
       DOS:  cpu time    0.0002: real time    0.0002
    --------------------------------------------
      LOOP:  cpu time    0.0735: real time    0.0799

 eigenvalue-minimisations  :    88
 total energy-change (2. order) :-0.2633832E+01  (-0.2552593E+01)
 number of electron      24.0000000 magnetization       3.0000000
 augmentation part       24.0000000 magnetization       3.0000000

 Free energy of the ion-electron system (eV)
  ---------------------------------------------------
  alpha Z        PSCENC =         0.79176686
  Ewald energy   TEWEN  =       344.18926381
  -Hartree energ DENC   =     -2023.08873437
  -exchange      EXHF   =         0.00000000
  -V(xc)+E(xc)   XCENC  =        69.49114189
  PAW double counting   =      1613.21348186    -1680.27202221
  entropy T*S    EENTRO =        -0.05895184
  eigenvalues    EBANDS =      -231.65854941
  atomic energy  EATOM  =      1897.11043396
  Solvation  Ediel_sol  =         0.00000000
  ---------------------------------------------------
  free energy    TOTEN  =       -10.28216943 eV

  energy without entropy =      -10.22321760  energy(sigma->0) =      -10.26743147


--------------------------------------------------------------------------------------------------------




----------------------------------------- Iteration    1(   5)  ---------------------------------------


     EDDAV:  cpu time    0.0767: real time    0.0770
       DOS:  cpu time    0.0002: real time    0.0002
    CHARGE:  cpu time    0.0958: real time    0.0981
    MIXING:  cpu time    0.0074: real time    0.0079
    --------------------------------------------
      LOOP:  cpu time    0.1812: real time    0.1904

 eigenvalue-minimisations  :    96
 total energy-change (2. order) :-0.5083857E-01  (-0.5080965E-01)
 number of electron      23.9999975 magnetization       2.7588646
 augmentation part        3.6563582 magnetization       2.1451021

 Broyden mixing:
  rms(total) = 0.13541E+01    rms(broyden)= 0.13533E+01
  rms(prec ) = 0.15310E+01
  weight for this iteration     100.00

 Free energy of the ion-electron system (eV)
  ---------------------------------------------------
  alpha Z        PSCENC =         0.79176686
  Ewald energy   TEWEN  =       344.18926381
  -Hartree energ DENC   =     -2023.08873437
  -exchange      EXHF   =         0.00000000
  -V(xc)+E(xc)   XCENC  =        69.49114189
  PAW double counting   =      1613.21348186    -1680.27202221
  entropy T*S    EENTRO =        -0.05952611
  eigenvalues    EBANDS =      -231.70881370
  atomic energy  EATOM  =      1897.11043396
  Solvation  Ediel_sol  =         0.00000000
  ---------------------------------------------------
  free energy    TOTEN  =       -10.33300800 eV

  energy without entropy =      -10.27348189  energy(sigma->0) =      -10.31812648


--------------------------------------------------------------------------------------------------------




----------------------------------------- Iteration    1(   6)  ---------------------------------------


    POTLOK:  cpu time    0.0685: real time    0.0685
    SETDIJ:  cpu time    0.0056: real time    0.0056
    EDDIAG:  cpu time    0.0199: real time    0.0216
  RMM-DIIS:  cpu time    0.0633: real time    0.0636
    ORTHCH:  cpu time    0.0036: real time    0.0036
       DOS:  cpu time    0.0002: real time    0.0002
    CHARGE:  cpu time    0.0868: real time    0.0868
    MIXING:  cpu time    0.0028: real time    0.0036
    --------------------------------------------
      LOOP:  cpu time    0.2521: real time    0.2615

 eigenvalue-minimisations  :    80
 total energy-change (2. order) : 0.1339678E+01  (-0.3093496E+01)
 number of electron      23.9999982 magnetization       2.5517335
 augmentation part        5.7229840 magnetization       2.7603005

 Broyden mixing:
  rms(total) = 0.26367E+01    rms(broyden)= 0.26366E+01
  rms(prec ) = 0.28080E+01
  weight for this iteration     100.00

 eigenvalues of (default mixing * dielectric matrix)
  average eigenvalue GAMMA=   0.3255
  0.3255

 Free energy of the ion-electron system (eV)
  ---------------------------------------------------
  alpha Z        PSCENC =         0.79176686
  Ewald energy   TEWEN  =       344.18926381
  -Hartree energ DENC   =     -1994.29312574
  -exchange      EXHF   =         0.00000000
  -V(xc)+E(xc)   XCENC  =        71.12351480
  PAW double counting   =      1648.35832986    -1708.86812285
  entropy T*S    EENTRO =        -0.00087603
  eigenvalues    EBANDS =      -267.40451435
  atomic energy  EATOM  =      1897.11043396
  Solvation  Ediel_sol  =         0.00000000
  ---------------------------------------------------
  free energy    TOTEN  =        -8.99332966 eV

  energy without entropy =       -8.99245364  energy(sigma->0) =       -8.99311066


--------------------------------------------------------------------------------------------------------




----------------------------------------- Iteration    1(   7)  ---------------------------------------


    POTLOK:  cpu time    0.0649: real time    0.0649
    SETDIJ:  cpu time    0.0039: real time    0.0039
    EDDIAG:  cpu time    0.0160: real time    0.0160
  RMM-DIIS:  cpu time    0.0403: real time    0.0403
    ORTHCH:  cpu time    0.0036: real time    0.0036
       DOS:  cpu time    0.0002: real time    0.0002
    CHARGE:  cpu time    0.0832: real time    0.0832
    MIXING:  cpu time    0.0021: real time    0.0024
    --------------------------------------------
      LOOP:  cpu time    0.2154: real time    0.2221

 eigenvalue-minimisations  :    80
 total energy-change (2. order) : 0.3130450E+01  (-0.5917807E+00)
 number of electron      23.9999979 magnetization       2.3918892
 augmentation part        4.3123345 magnetization       1.6262029

 Broyden mixing:
  rms(total) = 0.55262E+00    rms(broyden)= 0.55079E+00
  rms(prec ) = 0.58890E+00
  weight for this iteration     100.00

 eigenvalues of (default mixing * dielectric matrix)
  average eigenvalue GAMMA=   0.5700
  0.8440  0.2959

 Free energy of the ion-electron system (eV)
  ---------------------------------------------------
  alpha Z        PSCENC =         0.79176686
  Ewald energy   TEWEN  =       344.18926381
  -Hartree energ DENC   =     -2012.99213852
  -exchange      EXHF   =         0.00000000
  -V(xc)+E(xc)   XCENC  =        71.27254002
  PAW double counting   =      1705.73214385    -1771.53891421
  entropy T*S    EENTRO =        -0.01923596
  eigenvalues    EBANDS =      -240.40873981
  atomic energy  EATOM  =      1897.11043396
  Solvation  Ediel_sol  =         0.00000000
  ---------------------------------------------------
  free energy    TOTEN  =        -5.86288001 eV

  energy without entropy =       -5.84364405  energy(sigma->0) =       -5.85807102


--------------------------------------------------------------------------------------------------------




----------------------------------------- Iteration    1(   8)  ---------------------------------------


    POTLOK:  cpu time    0.0645: real time    0.0645
    SETDIJ:  cpu time    0.0035: real time    0.0035
    EDDIAG:  cpu time    0.0159: real time    0.0159
  RMM-DIIS:  cpu time    0.0402: real time    0.0402
    ORTHCH:  cpu time    0.0036: real time    0.0036
       DOS:  cpu time    0.0002: real time    0.0002
    CHARGE:  cpu time    0.0831: real time    0.0831
    MIXING:  cpu time    0.0021: real time    0.0024
    --------------------------------------------
      LOOP:  cpu time    0.2142: real time    0.2214

 eigenvalue-minimisations  :    80
 total energy-change (2. order) :-0.1039092E+01  (-0.1086721E+00)
 number of electron      23.9999980 magnetization       2.3293208
 augmentation part        4.4705021 magnetization       1.4039020

 Broyden mixing:
  rms(total) = 0.36692E+00    rms(broyden)= 0.36648E+00
  rms(prec ) = 0.38175E+00
  weight for this iteration     100.00

 eigenvalues of (default mixing * dielectric matrix)
  average eigenvalue GAMMA=   0.7693
  0.2951  1.0064  1.0064

 Free energy of the ion-electron system (eV)
  ---------------------------------------------------
  alpha Z        PSCENC =         0.79176686
  Ewald energy   TEWEN  =       344.18926381
  -Hartree energ DENC   =     -2014.86700243
  -exchange      EXHF   =         0.00000000
  -V(xc)+E(xc)   XCENC  =        70.87111287
  PAW double counting   =      1781.94080666    -1849.02411685
  entropy T*S    EENTRO =         0.01979946
  eigenvalues    EBANDS =      -237.93403678
  atomic energy  EATOM  =      1897.11043396
  Solvation  Ediel_sol  =         0.00000000
  ---------------------------------------------------
  free energy    TOTEN  =        -6.90197244 eV

  energy without entropy =       -6.92177190  energy(sigma->0) =       -6.90692230


--------------------------------------------------------------------------------------------------------




----------------------------------------- Iteration    1(   9)  ---------------------------------------


    POTLOK:  cpu time    0.0647: real time    0.0647
    SETDIJ:  cpu time    0.0034: real time    0.0034
    EDDIAG:  cpu time    0.0159: real time    0.0159
  RMM-DIIS:  cpu time    0.0401: real time    0.0402
    ORTHCH:  cpu time    0.0035: real time    0.0035
       DOS:  cpu time    0.0002: real time    0.0002
    CHARGE:  cpu time    0.0831: real time    0.0831
    MIXING:  cpu time    0.0021: real time    0.0021
    --------------------------------------------
      LOOP:  cpu time    0.2144: real time    0.2209

 eigenvalue-minimisations  :    80
 total energy-change (2. order) :-0.4239058E+00  (-0.2834884E-01)
 number of electron      23.9999980 magnetization       2.2668161
 augmentation part        4.4836468 magnetization       1.2567787

 Broyden mixing:
  rms(total) = 0.21238E+00    rms(broyden)= 0.21236E+00
  rms(prec ) = 0.22856E+00
  weight for this iteration     100.00

 eigenvalues of (default mixing * dielectric matrix)
  average eigenvalue GAMMA=   0.8711
  1.2538  1.2538  0.2996  0.6770

 Free energy of the ion-electron system (eV)
  ---------------------------------------------------
  alpha Z        PSCENC =         0.79176686
  Ewald energy   TEWEN  =       344.18926381
  -Hartree energ DENC   =     -2015.12634151
  -exchange      EXHF   =         0.00000000
  -V(xc)+E(xc)   XCENC  =        70.40807010
  PAW double counting   =      1817.26735032    -1884.85531665
  entropy T*S    EENTRO =         0.03150446
  eigenvalues    EBANDS =      -237.14260962
  atomic energy  EATOM  =      1897.11043396
  Solvation  Ediel_sol  =         0.00000000
  ---------------------------------------------------
  free energy    TOTEN  =        -7.32587826 eV

  energy without entropy =       -7.35738272  energy(sigma->0) =       -7.33375437


--------------------------------------------------------------------------------------------------------




----------------------------------------- Iteration    1(  10)  ---------------------------------------


    POTLOK:  cpu time    0.0646: real time    0.0646
    SETDIJ:  cpu time    0.0034: real time    0.0034
    EDDIAG:  cpu time    0.0159: real time    0.0159
  RMM-DIIS:  cpu time    0.0428: real time    0.0428
    ORTHCH:  cpu time    0.0036: real time    0.0036
       DOS:  cpu time    0.0002: real time    0.0002
    CHARGE:  cpu time    0.0865: real time    0.0865
    MIXING:  cpu time    0.0023: real time    0.0023
    --------------------------------------------
      LOOP:  cpu time    0.2206: real time    0.2272

 eigenvalue-minimisations  :    81
 total energy-change (2. order) :-0.4388730E+00  (-0.2053091E-01)
 number of electron      23.9999979 magnetization       2.2121581
 augmentation part        4.3148279 magnetization       1.3554882

 Broyden mixing:
  rms(total) = 0.21248E+00    rms(broyden)= 0.21207E+00
  rms(prec ) = 0.23204E+00
  weight for this iteration     100.00

 eigenvalues of (default mixing * dielectric matrix)
  average eigenvalue GAMMA=   0.7950
  1.3884  0.8715  0.8715  0.2998  0.5439

 Free energy of the ion-electron system (eV)
  ---------------------------------------------------
  alpha Z        PSCENC =         0.79176686
  Ewald energy   TEWEN  =       344.18926381
  -Hartree energ DENC   =     -2016.89398212
  -exchange      EXHF   =         0.00000000
  -V(xc)+E(xc)   XCENC  =        69.99863305
  PAW double counting   =      1847.40488419    -1915.74457951
  entropy T*S    EENTRO =        -0.03737896
  eigenvalues    EBANDS =      -234.58379251
  atomic energy  EATOM  =      1897.11043396
  Solvation  Ediel_sol  =         0.00000000
  ---------------------------------------------------
  free energy    TOTEN  =        -7.76475122 eV

  energy without entropy =       -7.72737227  energy(sigma->0) =       -7.75540649


--------------------------------------------------------------------------------------------------------




----------------------------------------- Iteration    1(  11)  ---------------------------------------


    POTLOK:  cpu time    0.0647: real time    0.0647
    SETDIJ:  cpu time    0.0035: real time    0.0034
    EDDIAG:  cpu time    0.0160: real time    0.0160
  RMM-DIIS:  cpu time    0.0406: real time    0.0406
    ORTHCH:  cpu time    0.0036: real time    0.0036
       DOS:  cpu time    0.0002: real time    0.0002
    CHARGE:  cpu time    0.0861: real time    0.0861
    MIXING:  cpu time    0.0024: real time    0.0024
    --------------------------------------------
      LOOP:  cpu time    0.2184: real time    0.2250

 eigenvalue-minimisations  :    80
 total energy-change (2. order) : 0.3105735E-01  (-0.2814246E-02)
 number of electron      23.9999979 magnetization       2.2094615
 augmentation part        4.4119498 magnetization       1.2732103

 Broyden mixing:
  rms(total) = 0.14421E+00    rms(broyden)= 0.14400E+00
  rms(prec ) = 0.15256E+00
  weight for this iteration     100.00

 eigenvalues of (default mixing * dielectric matrix)
  average eigenvalue GAMMA=   0.8321
  1.1152  1.1152  0.9584  0.9584  0.3004  0.5453

 Free energy of the ion-electron system (eV)
  ---------------------------------------------------
  alpha Z        PSCENC =         0.79176686
  Ewald energy   TEWEN  =       344.18926381
  -Hartree energ DENC   =     -2016.19051261
  -exchange      EXHF   =         0.00000000
  -V(xc)+E(xc)   XCENC  =        70.01846996
  PAW double counting   =      1856.37791415    -1924.67394274
  entropy T*S    EENTRO =        -0.03814616
  eigenvalues    EBANDS =      -235.31894112
  atomic energy  EATOM  =      1897.11043396
  Solvation  Ediel_sol  =         0.00000000
  ---------------------------------------------------
  free energy    TOTEN  =        -7.73369388 eV

  energy without entropy =       -7.69554772  energy(sigma->0) =       -7.72415734


--------------------------------------------------------------------------------------------------------




----------------------------------------- Iteration    1(  12)  ---------------------------------------


    POTLOK:  cpu time    0.0661: real time    0.0661
    SETDIJ:  cpu time    0.0035: real time    0.0035
    EDDIAG:  cpu time    0.0160: real time    0.0160
  RMM-DIIS:  cpu time    0.0435: real time    0.0435
    ORTHCH:  cpu time    0.0036: real time    0.0036
       DOS:  cpu time    0.0002: real time    0.0002
    CHARGE:  cpu time    0.0861: real time    0.0862
    MIXING:  cpu time    0.0025: real time    0.0025
    --------------------------------------------
      LOOP:  cpu time    0.2228: real time    0.2288

 eigenvalue-minimisations  :    81
 total energy-change (2. order) :-0.1504146E-01  (-0.6529319E-03)
 number of electron      23.9999980 magnetization       2.1782885
 augmentation part        4.4007339 magnetization       1.2497558

 Broyden mixing:
  rms(total) = 0.96651E-01    rms(broyden)= 0.96364E-01
  rms(prec ) = 0.10514E+00
  weight for this iteration     100.00

 eigenvalues of (default mixing * dielectric matrix)
  average eigenvalue GAMMA=   0.8481
  1.0534  1.0534  1.1884  1.1884  0.3001  0.5767  0.5767

 Free energy of the ion-electron system (eV)
  ---------------------------------------------------
  alpha Z        PSCENC =         0.79176686
  Ewald energy   TEWEN  =       344.18926381
  -Hartree energ DENC   =     -2016.34701826
  -exchange      EXHF   =         0.00000000
  -V(xc)+E(xc)   XCENC  =        69.97579093
  PAW double counting   =      1851.93300771    -1920.17325040
  entropy T*S    EENTRO =        -0.02984640
  eigenvalues    EBANDS =      -235.19888355
  atomic energy  EATOM  =      1897.11043396
  Solvation  Ediel_sol  =         0.00000000
  ---------------------------------------------------
  free energy    TOTEN  =        -7.74873534 eV

  energy without entropy =       -7.71888894  energy(sigma->0) =       -7.74127374


--------------------------------------------------------------------------------------------------------




----------------------------------------- Iteration    1(  13)  ---------------------------------------


    POTLOK:  cpu time    0.0645: real time    0.0645
    SETDIJ:  cpu time    0.0035: real time    0.0035
    EDDIAG:  cpu time    0.0161: real time    0.0161
  RMM-DIIS:  cpu time    0.0426: real time    0.0426
    ORTHCH:  cpu time    0.0037: real time    0.0037
       DOS:  cpu time    0.0002: real time    0.0002
    CHARGE:  cpu time    0.0860: real time    0.0860
    MIXING:  cpu time    0.0026: real time    0.0026
    --------------------------------------------
      LOOP:  cpu time    0.2205: real time    0.2271

 eigenvalue-minimisations  :    81
 total energy-change (2. order) :-0.4278062E-01  (-0.4069668E-03)
 number of electron      23.9999980 magnetization       2.1070509
 augmentation part        4.3824790 magnetization       1.1920982

 Broyden mixing:
  rms(total) = 0.59351E-01    rms(broyden)= 0.59234E-01
  rms(prec ) = 0.70205E-01
  weight for this iteration     100.00

 eigenvalues of (default mixing * dielectric matrix)
  average eigenvalue GAMMA=   0.9383
  1.8922  1.1304  1.1304  0.9146  0.9146  0.3002  0.6120  0.6120

 Free energy of the ion-electron system (eV)
  ---------------------------------------------------
  alpha Z        PSCENC =         0.79176686
  Ewald energy   TEWEN  =       344.18926381
  -Hartree energ DENC   =     -2016.45961329
  -exchange      EXHF   =         0.00000000
  -V(xc)+E(xc)   XCENC  =        69.92143046
  PAW double counting   =      1854.71626420    -1922.98684838
  entropy T*S    EENTRO =        -0.02446523
  eigenvalues    EBANDS =      -235.04974835
  atomic energy  EATOM  =      1897.11043396
  Solvation  Ediel_sol  =         0.00000000
  ---------------------------------------------------
  free energy    TOTEN  =        -7.79151595 eV

  energy without entropy =       -7.76705073  energy(sigma->0) =       -7.78539965


--------------------------------------------------------------------------------------------------------




----------------------------------------- Iteration    1(  14)  ---------------------------------------


    POTLOK:  cpu time    0.0645: real time    0.0645
    SETDIJ:  cpu time    0.0035: real time    0.0035
    EDDIAG:  cpu time    0.0159: real time    0.0159
  RMM-DIIS:  cpu time    0.0403: real time    0.0403
    ORTHCH:  cpu time    0.0036: real time    0.0036
       DOS:  cpu time    0.0002: real time    0.0002
    CHARGE:  cpu time    0.0856: real time    0.0856
    MIXING:  cpu time    0.0028: real time    0.0028
    --------------------------------------------
      LOOP:  cpu time    0.2177: real time    0.2234

 eigenvalue-minimisations  :    80
 total energy-change (2. order) :-0.6122642E-01  (-0.2861846E-03)
 number of electron      23.9999980 magnetization       2.0840840
 augmentation part        4.3927187 magnetization       1.1408581

 Broyden mixing:
  rms(total) = 0.28556E-01    rms(broyden)= 0.28211E-01
  rms(prec ) = 0.36436E-01
  weight for this iteration     100.00

 eigenvalues of (default mixing * dielectric matrix)
  average eigenvalue GAMMA=   0.9676
  1.9881  1.1681  1.1681  1.1322  0.3002  0.8828  0.7256  0.7256  0.6173

 Free energy of the ion-electron system (eV)
  ---------------------------------------------------
  alpha Z        PSCENC =         0.79176686
  Ewald energy   TEWEN  =       344.18926381
  -Hartree energ DENC   =     -2016.39253119
  -exchange      EXHF   =         0.00000000
  -V(xc)+E(xc)   XCENC  =        69.85077499
  PAW double counting   =      1862.30201798    -1930.63127575
  entropy T*S    EENTRO =        -0.01293477
  eigenvalues    EBANDS =      -235.06025826
  atomic energy  EATOM  =      1897.11043396
  Solvation  Ediel_sol  =         0.00000000
  ---------------------------------------------------
  free energy    TOTEN  =        -7.85274237 eV

  energy without entropy =       -7.83980760  energy(sigma->0) =       -7.84950868


--------------------------------------------------------------------------------------------------------




----------------------------------------- Iteration    1(  15)  ---------------------------------------


    POTLOK:  cpu time    0.0646: real time    0.0646
    SETDIJ:  cpu time    0.0037: real time    0.0037
    EDDIAG:  cpu time    0.0160: real time    0.0160
  RMM-DIIS:  cpu time    0.0403: real time    0.0403
    ORTHCH:  cpu time    0.0037: real time    0.0037
       DOS:  cpu time    0.0003: real time    0.0003
    CHARGE:  cpu time    0.0859: real time    0.0859
    MIXING:  cpu time    0.0030: real time    0.0030
    --------------------------------------------
      LOOP:  cpu time    0.2186: real time    0.2252

 eigenvalue-minimisations  :    80
 total energy-change (2. order) :-0.4038041E-01  (-0.1983878E-03)
 number of electron      23.9999980 magnetization       2.0639713
 augmentation part        4.3864370 magnetization       1.1274082

 Broyden mixing:
  rms(total) = 0.33194E-01    rms(broyden)= 0.33073E-01
  rms(prec ) = 0.39487E-01
  weight for this iteration     100.00

 eigenvalues of (default mixing * dielectric matrix)
  average eigenvalue GAMMA=   0.9685
  2.0597  1.2277  1.2277  1.1560  1.1560  0.3002  0.6638  0.6638  0.6149  0.6149

 Free energy of the ion-electron system (eV)
  ---------------------------------------------------
  alpha Z        PSCENC =         0.79176686
  Ewald energy   TEWEN  =       344.18926381
  -Hartree energ DENC   =     -2016.45472718
  -exchange      EXHF   =         0.00000000
  -V(xc)+E(xc)   XCENC  =        69.80968509
  PAW double counting   =      1862.07509120    -1930.40605601
  entropy T*S    EENTRO =        -0.00925424
  eigenvalues    EBANDS =      -234.99932628
  atomic energy  EATOM  =      1897.11043396
  Solvation  Ediel_sol  =         0.00000000
  ---------------------------------------------------
  free energy    TOTEN  =        -7.89312278 eV

  energy without entropy =       -7.88386854  energy(sigma->0) =       -7.89080922


--------------------------------------------------------------------------------------------------------




----------------------------------------- Iteration    1(  16)  ---------------------------------------


    POTLOK:  cpu time    0.0650: real time    0.0650
    SETDIJ:  cpu time    0.0035: real time    0.0035
    EDDIAG:  cpu time    0.0159: real time    0.0159
  RMM-DIIS:  cpu time    0.0402: real time    0.0402
    ORTHCH:  cpu time    0.0037: real time    0.0037
       DOS:  cpu time    0.0002: real time    0.0002
    CHARGE:  cpu time    0.0859: real time    0.0859
    MIXING:  cpu time    0.0031: real time    0.0031
    --------------------------------------------
      LOOP:  cpu time    0.2186: real time    0.2252

 eigenvalue-minimisations  :    80
 total energy-change (2. order) :-0.1562210E-01  (-0.1547027E-03)
 number of electron      23.9999980 magnetization       2.0306895
 augmentation part        4.4011662 magnetization       1.0707068

 Broyden mixing:
  rms(total) = 0.23489E-01    rms(broyden)= 0.23457E-01
  rms(prec ) = 0.29183E-01
  weight for this iteration     100.00

 eigenvalues of (default mixing * dielectric matrix)
  average eigenvalue GAMMA=   1.0121
  2.0226  1.3079  1.3079  1.5321  0.3002  1.0707  0.8088  0.8088  0.7992  0.5876
  0.5876

 Free energy of the ion-electron system (eV)
  ---------------------------------------------------
  alpha Z        PSCENC =         0.79176686
  Ewald energy   TEWEN  =       344.18926381
  -Hartree energ DENC   =     -2016.36063476
  -exchange      EXHF   =         0.00000000
  -V(xc)+E(xc)   XCENC  =        69.79501109
  PAW double counting   =      1861.99213888    -1930.29633867
  entropy T*S    EENTRO =        -0.00573162
  eigenvalues    EBANDS =      -235.12465444
  atomic energy  EATOM  =      1897.11043396
  Solvation  Ediel_sol  =         0.00000000
  ---------------------------------------------------
  free energy    TOTEN  =        -7.90874488 eV

  energy without entropy =       -7.90301326  energy(sigma->0) =       -7.90731198


--------------------------------------------------------------------------------------------------------




----------------------------------------- Iteration    1(  17)  ---------------------------------------


    POTLOK:  cpu time    0.0642: real time    0.0642
    SETDIJ:  cpu time    0.0035: real time    0.0035
    EDDIAG:  cpu time    0.0160: real time    0.0160
  RMM-DIIS:  cpu time    0.0403: real time    0.0403
    ORTHCH:  cpu time    0.0037: real time    0.0037
       DOS:  cpu time    0.0002: real time    0.0002
    CHARGE:  cpu time    0.0859: real time    0.0860
    MIXING:  cpu time    0.0032: real time    0.0032
    --------------------------------------------
      LOOP:  cpu time    0.2183: real time    0.2246

 eigenvalue-minimisations  :    80
 total energy-change (2. order) :-0.2801881E-01  (-0.5002711E-03)
 number of electron      23.9999980 magnetization       2.0113847
 augmentation part        4.3941195 magnetization       1.0667533

 Broyden mixing:
  rms(total) = 0.28970E-01    rms(broyden)= 0.28952E-01
  rms(prec ) = 0.31456E-01
  weight for this iteration     100.00

 eigenvalues of (default mixing * dielectric matrix)
  average eigenvalue GAMMA=   1.0912
  2.4302  2.4302  1.2743  1.2743  0.3002  0.8937  0.8937  0.8461  0.8461  0.6244
  0.6244  0.6565

 Free energy of the ion-electron system (eV)
  ---------------------------------------------------
  alpha Z        PSCENC =         0.79176686
  Ewald energy   TEWEN  =       344.18926381
  -Hartree energ DENC   =     -2016.52715919
  -exchange      EXHF   =         0.00000000
  -V(xc)+E(xc)   XCENC  =        69.76692697
  PAW double counting   =      1859.38986520    -1927.67308113
  entropy T*S    EENTRO =        -0.01194717
  eigenvalues    EBANDS =      -234.97283300
  atomic energy  EATOM  =      1897.11043396
  Solvation  Ediel_sol  =         0.00000000
  ---------------------------------------------------
  free energy    TOTEN  =        -7.93676369 eV

  energy without entropy =       -7.92481652  energy(sigma->0) =       -7.93377690


--------------------------------------------------------------------------------------------------------




----------------------------------------- Iteration    1(  18)  ---------------------------------------


    POTLOK:  cpu time    0.0644: real time    0.0645
    SETDIJ:  cpu time    0.0035: real time    0.0035
    EDDIAG:  cpu time    0.0158: real time    0.0158
  RMM-DIIS:  cpu time    0.0428: real time    0.0428
    ORTHCH:  cpu time    0.0035: real time    0.0035
       DOS:  cpu time    0.0002: real time    0.0002
    CHARGE:  cpu time    0.0860: real time    0.0860
    MIXING:  cpu time    0.0034: real time    0.0034
    --------------------------------------------
      LOOP:  cpu time    0.2216: real time    0.2281

 eigenvalue-minimisations  :    81
 total energy-change (2. order) :-0.4683467E-02  (-0.1322538E-03)
 number of electron      23.9999980 magnetization       2.0021585
 augmentation part        4.3890684 magnetization       1.0567761

 Broyden mixing:
  rms(total) = 0.14217E-01    rms(broyden)= 0.14186E-01
  rms(prec ) = 0.16945E-01
  weight for this iteration     100.00

 eigenvalues of (default mixing * dielectric matrix)
  average eigenvalue GAMMA=   1.1461
  3.1022  2.4156  1.3093  1.3093  1.1307  1.1307  0.8500  0.8500  0.3002  0.6769
  0.6283  0.6283  0.5683

 Free energy of the ion-electron system (eV)
  ---------------------------------------------------
  alpha Z        PSCENC =         0.79176686
  Ewald energy   TEWEN  =       344.18926381
  -Hartree energ DENC   =     -2016.66654959
  -exchange      EXHF   =         0.00000000
  -V(xc)+E(xc)   XCENC  =        69.75601730
  PAW double counting   =      1858.29477697    -1926.56687070
  entropy T*S    EENTRO =        -0.01061022
  eigenvalues    EBANDS =      -234.83967555
  atomic energy  EATOM  =      1897.11043396
  Solvation  Ediel_sol  =         0.00000000
  ---------------------------------------------------
  free energy    TOTEN  =        -7.94144716 eV

  energy without entropy =       -7.93083694  energy(sigma->0) =       -7.93879460


--------------------------------------------------------------------------------------------------------




----------------------------------------- Iteration    1(  19)  ---------------------------------------


    POTLOK:  cpu time    0.0646: real time    0.0646
    SETDIJ:  cpu time    0.0035: real time    0.0035
    EDDIAG:  cpu time    0.0159: real time    0.0159
  RMM-DIIS:  cpu time    0.0403: real time    0.0403
    ORTHCH:  cpu time    0.0037: real time    0.0037
       DOS:  cpu time    0.0002: real time    0.0002
    CHARGE:  cpu time    0.0858: real time    0.0858
    MIXING:  cpu time    0.0035: real time    0.0035
    --------------------------------------------
      LOOP:  cpu time    0.2188: real time    0.2255

 eigenvalue-minimisations  :    80
 total energy-change (2. order) :-0.1776016E-02  (-0.7083138E-04)
 number of electron      23.9999980 magnetization       2.0049521
 augmentation part        4.3895270 magnetization       1.0565909

 Broyden mixing:
  rms(total) = 0.92440E-02    rms(broyden)= 0.92383E-02
  rms(prec ) = 0.11327E-01
  weight for this iteration     100.00

 eigenvalues of (default mixing * dielectric matrix)
  average eigenvalue GAMMA=   1.1519
  3.4074  2.3874  1.2882  1.2882  1.0293  1.0293  1.0117  1.0117  0.3002  0.7518
  0.7518  0.6590  0.6050  0.6050

 Free energy of the ion-electron system (eV)
  ---------------------------------------------------
  alpha Z        PSCENC =         0.79176686
  Ewald energy   TEWEN  =       344.18926381
  -Hartree energ DENC   =     -2016.76267826
  -exchange      EXHF   =         0.00000000
  -V(xc)+E(xc)   XCENC  =        69.75212292
  PAW double counting   =      1857.63907389    -1925.90542274
  entropy T*S    EENTRO =        -0.00953368
  eigenvalues    EBANDS =      -234.74824993
  atomic energy  EATOM  =      1897.11043396
  Solvation  Ediel_sol  =         0.00000000
  ---------------------------------------------------
  free energy    TOTEN  =        -7.94322317 eV

  energy without entropy =       -7.93368949  energy(sigma->0) =       -7.94083975


--------------------------------------------------------------------------------------------------------




----------------------------------------- Iteration    1(  20)  ---------------------------------------


    POTLOK:  cpu time    0.0644: real time    0.0644
    SETDIJ:  cpu time    0.0035: real time    0.0035
    EDDIAG:  cpu time    0.0160: real time    0.0160
  RMM-DIIS:  cpu time    0.0403: real time    0.0403
    ORTHCH:  cpu time    0.0036: real time    0.0036
       DOS:  cpu time    0.0002: real time    0.0002
    CHARGE:  cpu time    0.0830: real time    0.0831
    MIXING:  cpu time    0.0038: real time    0.0038
    --------------------------------------------
      LOOP:  cpu time    0.2160: real time    0.2226

 eigenvalue-minimisations  :    80
 total energy-change (2. order) :-0.1052167E-02  (-0.5717971E-04)
 number of electron      23.9999980 magnetization       2.0092041
 augmentation part        4.3950517 magnetization       1.0573602

 Broyden mixing:
  rms(total) = 0.66094E-02    rms(broyden)= 0.65689E-02
  rms(prec ) = 0.78812E-02
  weight for this iteration     100.00

 eigenvalues of (default mixing * dielectric matrix)
  average eigenvalue GAMMA=   1.1957
  3.8825  2.3205  1.2894  1.2894  1.2558  1.2558  1.1910  0.9508  0.9508  0.3002
  0.7102  0.7102  0.6411  0.5935  0.5935

 Free energy of the ion-electron system (eV)
  ---------------------------------------------------
  alpha Z        PSCENC =         0.79176686
  Ewald energy   TEWEN  =       344.18926381
  -Hartree energ DENC   =     -2016.77951363
  -exchange      EXHF   =         0.00000000
  -V(xc)+E(xc)   XCENC  =        69.75448181
  PAW double counting   =      1857.65763907    -1925.92494595
  entropy T*S    EENTRO =        -0.00898866
  eigenvalues    EBANDS =      -234.73441261
  atomic energy  EATOM  =      1897.11043396
  Solvation  Ediel_sol  =         0.00000000
  ---------------------------------------------------
  free energy    TOTEN  =        -7.94427534 eV

  energy without entropy =       -7.93528668  energy(sigma->0) =       -7.94202817


--------------------------------------------------------------------------------------------------------




----------------------------------------- Iteration    1(  21)  ---------------------------------------


    POTLOK:  cpu time    0.0649: real time    0.0649
    SETDIJ:  cpu time    0.0036: real time    0.0036
    EDDIAG:  cpu time    0.0160: real time    0.0160
  RMM-DIIS:  cpu time    0.0403: real time    0.0403
    ORTHCH:  cpu time    0.0036: real time    0.0036
       DOS:  cpu time    0.0002: real time    0.0002
    CHARGE:  cpu time    0.0828: real time    0.0828
    MIXING:  cpu time    0.0038: real time    0.0038
    --------------------------------------------
      LOOP:  cpu time    0.2166: real time    0.2228

 eigenvalue-minimisations  :    80
 total energy-change (2. order) :-0.1926808E-02  (-0.3648369E-04)
 number of electron      23.9999980 magnetization       2.0114107
 augmentation part        4.3932893 magnetization       1.0615860

 Broyden mixing:
  rms(total) = 0.48406E-02    rms(broyden)= 0.48357E-02
  rms(prec ) = 0.54325E-02
  weight for this iteration     100.00

 eigenvalues of (default mixing * dielectric matrix)
  average eigenvalue GAMMA=   1.2377
  4.4187  2.3454  1.2896  1.2896  1.7322  1.1757  1.1757  0.9869  0.9869  0.3002
  0.7557  0.7557  0.7564  0.6031  0.6031  0.6289

 Free energy of the ion-electron system (eV)
  ---------------------------------------------------
  alpha Z        PSCENC =         0.79176686
  Ewald energy   TEWEN  =       344.18926381
  -Hartree energ DENC   =     -2016.83233491
  -exchange      EXHF   =         0.00000000
  -V(xc)+E(xc)   XCENC  =        69.75176664
  PAW double counting   =      1857.89856844    -1926.16838376
  entropy T*S    EENTRO =        -0.00919600
  eigenvalues    EBANDS =      -234.67808719
  atomic energy  EATOM  =      1897.11043396
  Solvation  Ediel_sol  =         0.00000000
  ---------------------------------------------------
  free energy    TOTEN  =        -7.94620215 eV

  energy without entropy =       -7.93700615  energy(sigma->0) =       -7.94390315


--------------------------------------------------------------------------------------------------------




----------------------------------------- Iteration    1(  22)  ---------------------------------------


    POTLOK:  cpu time    0.0645: real time    0.0645
    SETDIJ:  cpu time    0.0035: real time    0.0035
    EDDIAG:  cpu time    0.0160: real time    0.0160
  RMM-DIIS:  cpu time    0.0404: real time    0.0404
    ORTHCH:  cpu time    0.0036: real time    0.0036
       DOS:  cpu time    0.0002: real time    0.0002
    CHARGE:  cpu time    0.0834: real time    0.0834
    MIXING:  cpu time    0.0040: real time    0.0040
    --------------------------------------------
      LOOP:  cpu time    0.2170: real time    0.2235

 eigenvalue-minimisations  :    80
 total energy-change (2. order) :-0.2471705E-02  (-0.3718017E-04)
 number of electron      23.9999980 magnetization       2.0137154
 augmentation part        4.3927332 magnetization       1.0630150

 Broyden mixing:
  rms(total) = 0.12887E-02    rms(broyden)= 0.12764E-02
  rms(prec ) = 0.18806E-02
  weight for this iteration     100.00

 eigenvalues of (default mixing * dielectric matrix)
  average eigenvalue GAMMA=   1.3515
  5.8208  2.5714  2.2835  1.2885  1.2885  1.1909  1.0868  1.0868  1.0129  1.0129
  0.3002  0.7431  0.7431  0.7258  0.6046  0.6046  0.6116

 Free energy of the ion-electron system (eV)
  ---------------------------------------------------
  alpha Z        PSCENC =         0.79176686
  Ewald energy   TEWEN  =       344.18926381
  -Hartree energ DENC   =     -2016.84019170
  -exchange      EXHF   =         0.00000000
  -V(xc)+E(xc)   XCENC  =        69.74685484
  PAW double counting   =      1857.98346004    -1926.24919129
  entropy T*S    EENTRO =        -0.00891364
  eigenvalues    EBANDS =      -234.67215673
  atomic energy  EATOM  =      1897.11043396
  Solvation  Ediel_sol  =         0.00000000
  ---------------------------------------------------
  free energy    TOTEN  =        -7.94867385 eV

  energy without entropy =       -7.93976021  energy(sigma->0) =       -7.94644544


--------------------------------------------------------------------------------------------------------




----------------------------------------- Iteration    1(  23)  ---------------------------------------


    POTLOK:  cpu time    0.0645: real time    0.0645
    SETDIJ:  cpu time    0.0036: real time    0.0036
    EDDIAG:  cpu time    0.0159: real time    0.0159
  RMM-DIIS:  cpu time    0.0405: real time    0.0405
    ORTHCH:  cpu time    0.0035: real time    0.0035
       DOS:  cpu time    0.0002: real time    0.0002
    CHARGE:  cpu time    0.0836: real time    0.0836
    MIXING:  cpu time    0.0042: real time    0.0042
    --------------------------------------------
      LOOP:  cpu time    0.2174: real time    0.2239

 eigenvalue-minimisations  :    80
 total energy-change (2. order) :-0.1332297E-02  (-0.1178735E-04)
 number of electron      23.9999980 magnetization       2.0153492
 augmentation part        4.3926164 magnetization       1.0646889

 Broyden mixing:
  rms(total) = 0.11849E-02    rms(broyden)= 0.11828E-02
  rms(prec ) = 0.14751E-02
  weight for this iteration     100.00

 eigenvalues of (default mixing * dielectric matrix)
  average eigenvalue GAMMA=   1.3980
  6.7285  2.6302  2.4589  1.2888  1.2888  1.2771  1.2771  1.0033  1.0033  0.3002
  0.9783  0.9783  0.7357  0.7357  0.6054  0.6054  0.6605  0.6079

 Free energy of the ion-electron system (eV)
  ---------------------------------------------------
  alpha Z        PSCENC =         0.79176686
  Ewald energy   TEWEN  =       344.18926381
  -Hartree energ DENC   =     -2016.83794216
  -exchange      EXHF   =         0.00000000
  -V(xc)+E(xc)   XCENC  =        69.74503593
  PAW double counting   =      1858.01984278    -1926.28502439
  entropy T*S    EENTRO =        -0.00897402
  eigenvalues    EBANDS =      -234.67440891
  atomic energy  EATOM  =      1897.11043396
  Solvation  Ediel_sol  =         0.00000000
  ---------------------------------------------------
  free energy    TOTEN  =        -7.95000615 eV

  energy without entropy =       -7.94103213  energy(sigma->0) =       -7.94776264


--------------------------------------------------------------------------------------------------------




----------------------------------------- Iteration    1(  24)  ---------------------------------------


    POTLOK:  cpu time    0.0643: real time    0.0643
    SETDIJ:  cpu time    0.0034: real time    0.0034
    EDDIAG:  cpu time    0.0159: real time    0.0159
  RMM-DIIS:  cpu time    0.0403: real time    0.0403
    ORTHCH:  cpu time    0.0035: real time    0.0035
       DOS:  cpu time    0.0002: real time    0.0002
    CHARGE:  cpu time    0.0829: real time    0.0829
    MIXING:  cpu time    0.0043: real time    0.0043
    --------------------------------------------
      LOOP:  cpu time    0.2161: real time    0.2220

 eigenvalue-minimisations  :    77
 total energy-change (2. order) :-0.6667005E-03  (-0.2282325E-05)
 number of electron      23.9999980 magnetization       2.0169396
 augmentation part        4.3927028 magnetization       1.0662369

 Broyden mixing:
  rms(total) = 0.44996E-03    rms(broyden)= 0.44914E-03
  rms(prec ) = 0.74532E-03
  weight for this iteration     100.00

 eigenvalues of (default mixing * dielectric matrix)
  average eigenvalue GAMMA=   1.4495
  7.3977  2.9076  2.4818  1.2889  1.2889  1.5541  1.5541  1.0072  1.0072  1.0142
  1.0142  0.3002  0.7478  0.7478  0.7624  0.6045  0.6045  0.6546  0.6034

 Free energy of the ion-electron system (eV)
  ---------------------------------------------------
  alpha Z        PSCENC =         0.79176686
  Ewald energy   TEWEN  =       344.18926381
  -Hartree energ DENC   =     -2016.82805025
  -exchange      EXHF   =         0.00000000
  -V(xc)+E(xc)   XCENC  =        69.74441816
  PAW double counting   =      1858.05445791    -1926.32028555
  entropy T*S    EENTRO =        -0.00903491
  eigenvalues    EBANDS =      -234.68364284
  atomic energy  EATOM  =      1897.11043396
  Solvation  Ediel_sol  =         0.00000000
  ---------------------------------------------------
  free energy    TOTEN  =        -7.95067285 eV

  energy without entropy =       -7.94163794  energy(sigma->0) =       -7.94841412


--------------------------------------------------------------------------------------------------------




----------------------------------------- Iteration    1(  25)  ---------------------------------------


    POTLOK:  cpu time    0.0645: real time    0.0645
    SETDIJ:  cpu time    0.0034: real time    0.0034
    EDDIAG:  cpu time    0.0158: real time    0.0158
  RMM-DIIS:  cpu time    0.0383: real time    0.0383
    ORTHCH:  cpu time    0.0036: real time    0.0036
       DOS:  cpu time    0.0002: real time    0.0002
    CHARGE:  cpu time    0.0834: real time    0.0834
    MIXING:  cpu time    0.0046: real time    0.0046
    --------------------------------------------
      LOOP:  cpu time    0.2152: real time    0.2219

 eigenvalue-minimisations  :    75
 total energy-change (2. order) :-0.3175770E-03  (-0.1512460E-05)
 number of electron      23.9999980 magnetization       2.0174484
 augmentation part        4.3927539 magnetization       1.0666315

 Broyden mixing:
  rms(total) = 0.35953E-03    rms(broyden)= 0.35898E-03
  rms(prec ) = 0.49119E-03
  weight for this iteration     100.00

 eigenvalues of (default mixing * dielectric matrix)
  average eigenvalue GAMMA=   1.5046
  8.0041  3.3955  2.4609  1.2889  1.2889  1.8335  1.8335  0.3002  1.0068  1.0068
  1.0477  1.0477  0.8762  0.7403  0.7403  0.7894  0.6035  0.6035  0.6149  0.6094

 Free energy of the ion-electron system (eV)
  ---------------------------------------------------
  alpha Z        PSCENC =         0.79176686
  Ewald energy   TEWEN  =       344.18926381
  -Hartree energ DENC   =     -2016.81195391
  -exchange      EXHF   =         0.00000000
  -V(xc)+E(xc)   XCENC  =        69.74371074
  PAW double counting   =      1858.03439306    -1926.30026092
  entropy T*S    EENTRO =        -0.00902635
  eigenvalues    EBANDS =      -234.69931768
  atomic energy  EATOM  =      1897.11043396
  Solvation  Ediel_sol  =         0.00000000
  ---------------------------------------------------
  free energy    TOTEN  =        -7.95099043 eV

  energy without entropy =       -7.94196407  energy(sigma->0) =       -7.94873384


--------------------------------------------------------------------------------------------------------




----------------------------------------- Iteration    1(  26)  ---------------------------------------


    POTLOK:  cpu time    0.0645: real time    0.0645
    SETDIJ:  cpu time    0.0035: real time    0.0035
    EDDIAG:  cpu time    0.0160: real time    0.0160
  RMM-DIIS:  cpu time    0.0363: real time    0.0363
    ORTHCH:  cpu time    0.0035: real time    0.0035
       DOS:  cpu time    0.0002: real time    0.0002
    CHARGE:  cpu time    0.0830: real time    0.0830
    MIXING:  cpu time    0.0047: real time    0.0047
    --------------------------------------------
      LOOP:  cpu time    0.2128: real time    0.2194

 eigenvalue-minimisations  :    68
 total energy-change (2. order) :-0.5160212E-04  (-0.6107589E-06)
 number of electron      23.9999980 magnetization       2.0173548
 augmentation part        4.3925956 magnetization       1.0667772

 Broyden mixing:
  rms(total) = 0.16072E-03    rms(broyden)= 0.16038E-03
  rms(prec ) = 0.24779E-03
  weight for this iteration     100.00

 eigenvalues of (default mixing * dielectric matrix)
  average eigenvalue GAMMA=   1.5533
  8.4794  3.9678  2.4702  2.4702  1.2889  1.2889  1.6127  0.3002  1.0060  1.0060
  1.0338  1.0338  1.0979  0.9601  0.7409  0.7409  0.6042  0.6042  0.6894  0.6117
  0.6117

 Free energy of the ion-electron system (eV)
  ---------------------------------------------------
  alpha Z        PSCENC =         0.79176686
  Ewald energy   TEWEN  =       344.18926381
  -Hartree energ DENC   =     -2016.80408135
  -exchange      EXHF   =         0.00000000
  -V(xc)+E(xc)   XCENC  =        69.74336355
  PAW double counting   =      1857.98550771    -1926.25154349
  entropy T*S    EENTRO =        -0.00905006
  eigenvalues    EBANDS =      -234.70670302
  atomic energy  EATOM  =      1897.11043396
  Solvation  Ediel_sol  =         0.00000000
  ---------------------------------------------------
  free energy    TOTEN  =        -7.95104203 eV

  energy without entropy =       -7.94199196  energy(sigma->0) =       -7.94877951


--------------------------------------------------------------------------------------------------------




----------------------------------------- Iteration    1(  27)  ---------------------------------------


    POTLOK:  cpu time    0.0649: real time    0.0649
    SETDIJ:  cpu time    0.0035: real time    0.0035
    EDDIAG:  cpu time    0.0159: real time    0.0159
  RMM-DIIS:  cpu time    0.0340: real time    0.0340
    ORTHCH:  cpu time    0.0035: real time    0.0035
       DOS:  cpu time    0.0002: real time    0.0002
    CHARGE:  cpu time    0.0833: real time    0.0833
    MIXING:  cpu time    0.0048: real time    0.0048
    --------------------------------------------
      LOOP:  cpu time    0.2113: real time    0.2182

 eigenvalue-minimisations  :    59
 total energy-change (2. order) :-0.9531716E-04  (-0.1356485E-06)
 number of electron      23.9999980 magnetization       2.0171220
 augmentation part        4.3926261 magnetization       1.0664943

 Broyden mixing:
  rms(total) = 0.96017E-04    rms(broyden)= 0.95984E-04
  rms(prec ) = 0.16274E-03
  weight for this iteration     100.00

 eigenvalues of (default mixing * dielectric matrix)
  average eigenvalue GAMMA=   1.5665
  8.6132  4.3368  2.6140  2.4454  1.2889  1.2889  1.5020  1.5020  1.0056  1.0056
  0.3002  1.1238  1.0194  1.0194  0.8157  0.7434  0.7434  0.6043  0.6043  0.6609
  0.6131  0.6131

 Free energy of the ion-electron system (eV)
  ---------------------------------------------------
  alpha Z        PSCENC =         0.79176686
  Ewald energy   TEWEN  =       344.18926381
  -Hartree energ DENC   =     -2016.80064827
  -exchange      EXHF   =         0.00000000
  -V(xc)+E(xc)   XCENC  =        69.74319065
  PAW double counting   =      1857.96839289    -1926.23454150
  entropy T*S    EENTRO =        -0.00904573
  eigenvalues    EBANDS =      -234.70995001
  atomic energy  EATOM  =      1897.11043396
  Solvation  Ediel_sol  =         0.00000000
  ---------------------------------------------------
  free energy    TOTEN  =        -7.95113735 eV

  energy without entropy =       -7.94209162  energy(sigma->0) =       -7.94887591


--------------------------------------------------------------------------------------------------------




[...]
  ---------------------------------------------------
  alpha Z        PSCENC =         0.79176686
  Ewald energy   TEWEN  =       393.13862113
  -Hartree energ DENC   =     -2048.53623755
  -exchange      EXHF   =         0.00000000
  -V(xc)+E(xc)   XCENC  =        70.00060111
  PAW double counting   =      2011.39945232    -2081.45976141
  entropy T*S    EENTRO =         0.00826277
  eigenvalues    EBANDS =      -251.89407404
  atomic energy  EATOM  =      1897.11043396
  Solvation  Ediel_sol  =         0.00000000
  ---------------------------------------------------
  free energy    TOTEN  =        -9.44093485 eV

  energy without entropy =       -9.44919762  energy(sigma->0) =       -9.44300054


--------------------------------------------------------------------------------------------------------




----------------------------------------- Iteration   28(  12)  ---------------------------------------


    POTLOK:  cpu time    0.0644: real time    0.0644
    SETDIJ:  cpu time    0.0035: real time    0.0035
    EDDIAG:  cpu time    0.0159: real time    0.0159
  RMM-DIIS:  cpu time    0.0278: real time    0.0278
    ORTHCH:  cpu time    0.0036: real time    0.0036
       DOS:  cpu time    0.0002: real time    0.0002
    CHARGE:  cpu time    0.0862: real time    0.0862
    MIXING:  cpu time    0.0030: real time    0.0030
    --------------------------------------------
      LOOP:  cpu time    0.2058: real time    0.2124

 eigenvalue-minimisations  :    48
 total energy-change (2. order) :-0.3249188E-05  (-0.8543239E-08)
 number of electron      24.0000009 magnetization       2.0000004
 augmentation part        4.2541322 magnetization       1.1492070

 Broyden mixing:
  rms(total) = 0.40526E-04    rms(broyden)= 0.40516E-04
  rms(prec ) = 0.57099E-04
  weight for this iteration     100.00

 eigenvalues of (default mixing * dielectric matrix)
  average eigenvalue GAMMA=   1.1196
  2.5753  2.5753  1.3260  1.3260  0.9688  0.7877  0.6624  0.6270  0.5771  0.5771
  0.3130

 Free energy of the ion-electron system (eV)
  ---------------------------------------------------
  alpha Z        PSCENC =         0.79176686
  Ewald energy   TEWEN  =       393.13862113
  -Hartree energ DENC   =     -2048.53587013
  -exchange      EXHF   =         0.00000000
  -V(xc)+E(xc)   XCENC  =        70.00058601
  PAW double counting   =      2011.39688883    -2081.45708646
  entropy T*S    EENTRO =         0.00826387
  eigenvalues    EBANDS =      -251.89454219
  atomic energy  EATOM  =      1897.11043396
  Solvation  Ediel_sol  =         0.00000000
  ---------------------------------------------------
  free energy    TOTEN  =        -9.44093810 eV

  energy without entropy =       -9.44920197  energy(sigma->0) =       -9.44300407


--------------------------------------------------------------------------------------------------------




----------------------------------------- Iteration   28(  13)  ---------------------------------------


    POTLOK:  cpu time    0.0647: real time    0.0647
    SETDIJ:  cpu time    0.0040: real time    0.0040
    EDDIAG:  cpu time    0.0159: real time    0.0159
  RMM-DIIS:  cpu time    0.0248: real time    0.0248
    ORTHCH:  cpu time    0.0035: real time    0.0035
       DOS:  cpu time    0.0002: real time    0.0002
    --------------------------------------------
      LOOP:  cpu time    0.1144: real time    0.1209

 eigenvalue-minimisations  :    36
 total energy-change (2. order) :-0.6084515E-06  (-0.1812823E-08)
 number of electron      24.0000009 magnetization       2.0000004
 augmentation part        4.2541322 magnetization       1.1492070

 Free energy of the ion-electron system (eV)
  ---------------------------------------------------
  alpha Z        PSCENC =         0.79176686
  Ewald energy   TEWEN  =       393.13862113
  -Hartree energ DENC   =     -2048.53613488
  -exchange      EXHF   =         0.00000000
  -V(xc)+E(xc)   XCENC  =        70.00058917
  PAW double counting   =      2011.39771149    -2081.45798130
  entropy T*S    EENTRO =         0.00826357
  eigenvalues    EBANDS =      -251.89420870
  atomic energy  EATOM  =      1897.11043396
  Solvation  Ediel_sol  =         0.00000000
  ---------------------------------------------------
  free energy    TOTEN  =        -9.44093871 eV

  energy without entropy =       -9.44920228  energy(sigma->0) =       -9.44300460


--------------------------------------------------------------------------------------------------------




 average (electrostatic) potential at core
  the test charge radii are     0.9791  0.9406
  (the norm of the test charge is              1.0000)
       1 -97.6753       2-101.2204       3-101.2204
 
 
 
 E-fermi :  -6.5329     XC(G=0):  -0.4202     alpha+bet : -0.1646


 spin component 1

 k-point     1 :       0.0000    0.0000    0.0000
  band No.  band energies     occupation 
      1     -20.9215      1.00000
      2     -20.6414      1.00000
      3     -11.1224      1.00000
      4     -10.0120      1.00000
      5     -10.0120      1.00000
      6      -9.1140      1.00000
      7      -8.6064      1.00000
      8      -8.6064      1.00000
      9      -7.6679      1.00000
     10      -7.5686      1.00000
     11      -7.5125      1.00000
     12      -7.4670      1.00000
     13      -7.4670      1.00000
     14      -1.2844      0.00000
     15      -0.2742      0.00000
     16      -0.2711      0.00000
     17       0.1620      0.00000
     18       0.2568      0.00000
     19       0.6646      0.00000
     20       0.6721      0.00000

 spin component 2

 k-point     1 :       0.0000    0.0000    0.0000
  band No.  band energies     occupation 
      1     -20.6285      1.00000
      2     -20.3393      1.00000
      3     -10.7550      1.00000
      4      -8.9933      1.00000
      5      -8.8757      1.00000
      6      -8.8757      1.00000
      7      -8.2432      1.00000
      8      -8.2431      1.00000
      9      -6.8838      0.99826
     10      -6.7000      1.04561
     11      -6.6377      0.95170
     12      -6.0372      0.00221
     13      -6.0372      0.00221
     14      -1.1341      0.00000
     15      -0.2476      0.00000
     16      -0.2439      0.00000
     17       0.1887      0.00000
     18       0.3044      0.00000
     19       0.6737      0.00000
     20       0.6800      0.00000


--------------------------------------------------------------------------------------------------------


 soft charge-density along one line, spin component           1
         0         1         2         3         4         5         6         7         8         9
 total charge-density along one line
 
 soft charge-density along one line, spin component           2
         0         1         2         3         4         5         6         7         8         9
 total charge-density along one line
 
 pseudopotential strength for first ion, spin component:           1
-12.039  -0.000  -0.000   0.590   0.000 -12.232  -0.000  -0.000
 -0.000 -12.067   0.154   0.000  -0.267  -0.000 -12.259   0.147
 -0.000   0.154 -12.400  -0.000  -0.397  -0.000   0.147 -12.577
  0.590   0.000  -0.000 -12.039  -0.000   0.564   0.000  -0.000
  0.000  -0.267  -0.397  -0.000 -11.941   0.000  -0.255  -0.380
-12.232  -0.000  -0.000   0.564   0.000 -12.374  -0.000  -0.000
 -0.000 -12.259   0.147   0.000  -0.255  -0.000 -12.399   0.140
 -0.000   0.147 -12.577  -0.000  -0.380  -0.000   0.140 -12.704
  0.564   0.000  -0.000 -12.232  -0.000   0.539   0.000   0.000
  0.000  -0.255  -0.380  -0.000 -12.138   0.000  -0.243  -0.363
 -0.000  -0.118   0.034   0.000  -0.059  -0.000  -0.116   0.034
 -0.000  -0.205   0.059   0.000  -0.102  -0.000  -0.202   0.058
 -0.000   0.000  -0.000  -0.000  -0.000  -0.000   0.000  -0.000
 -0.000   0.000   0.000  -0.000  -0.000  -0.000   0.000   0.000
  0.000  -0.000   0.000   0.000  -0.000   0.000  -0.000   0.000
 -0.000   0.000   0.000  -0.000  -0.000  -0.000   0.000   0.000
 -0.000   0.000   0.000  -0.000  -0.000  -0.000   0.000   0.000
  0.000  -0.000   0.000   0.000  -0.000   0.000  -0.000   0.000
 pseudopotential strength for first ion, spin component:           2
-10.781  -0.000   0.000   0.075   0.000 -11.032  -0.000   0.000
 -0.000 -11.249   0.168   0.000  -0.291  -0.000 -11.482   0.161
  0.000   0.168 -10.857   0.000   0.002   0.000   0.161 -11.104
  0.075   0.000   0.000 -10.781  -0.000   0.070   0.000   0.000
  0.000  -0.291   0.002  -0.000 -10.859   0.000  -0.279   0.003
-11.032  -0.000   0.000   0.070   0.000 -11.230  -0.000   0.000
 -0.000 -11.482   0.161   0.000  -0.279  -0.000 -11.663   0.155
  0.000   0.161 -11.104   0.000   0.003   0.000   0.155 -11.298
  0.070   0.000   0.000 -11.032  -0.000   0.066   0.000   0.000
  0.000  -0.279   0.003  -0.000 -11.108   0.000  -0.268   0.004
 -0.000  -0.050   0.014   0.000  -0.025  -0.000  -0.049   0.014
 -0.000  -0.085   0.025   0.000  -0.043  -0.000  -0.084   0.024
 -0.000   0.000  -0.000   0.000  -0.000  -0.000   0.000  -0.000
  0.000   0.000   0.000  -0.000   0.000   0.000   0.000   0.000
  0.000   0.000   0.000   0.000   0.000   0.000   0.000  -0.000
 -0.000   0.000  -0.000   0.000  -0.000  -0.000   0.000  -0.000
  0.000   0.000   0.000  -0.000   0.000   0.000   0.000   0.000
  0.000   0.000   0.000   0.000  -0.000   0.000   0.000   0.000
 total augmentation occupancy for first ion, spin component:           1
  3.455   0.000   0.000   0.089   0.000  -1.376   0.000   0.000   0.532  -0.000   0.000   0.000  -0.000   0.000   0.000  -0.000
  0.000   6.733  -0.948   0.000   1.642   0.000  -4.719   1.118  -0.000  -1.936   3.106  -0.298  -0.000  -0.000   0.000   0.000
 -0.000  -0.948   3.660   0.000  -0.510  -0.000   1.118  -1.965   0.000   0.099  -0.896   0.086  -0.001   0.001   0.000   0.000
  0.089   0.000   0.000   3.455  -0.000   0.532   0.000   0.000  -1.376  -0.000   0.000   0.000   0.000   0.000   0.000   0.000
  0.000   1.642  -0.510  -0.000   4.248   0.000  -1.936   0.099   0.000  -2.080   1.553  -0.149  -0.001   0.000   0.000   0.000
 -1.376   0.000   0.000   0.532   0.000   0.997   0.000   0.000  -0.787  -0.000   0.000   0.000   0.000   0.000  -0.000   0.000
  0.000  -4.719   1.118   0.000  -1.936   0.000   4.621  -1.271   0.000   2.202  -2.980   0.388   0.000   0.000   0.000  -0.000
  0.000   1.118  -1.965   0.000   0.099   0.000  -1.271   1.759   0.000   0.043   0.860  -0.112   0.001  -0.001   0.000  -0.000
  0.532  -0.000   0.000  -1.376   0.000  -0.787   0.000   0.000   0.997   0.000   0.000   0.000   0.000   0.000  -0.000   0.000
  0.000  -1.936   0.099  -0.000  -2.080   0.000   2.202   0.043  -0.000   1.710  -1.490   0.194   0.001  -0.000   0.000  -0.000
  0.000   3.106  -0.896   0.000   1.553   0.000  -2.980   0.860   0.000  -1.490   1.996  -0.233  -0.000  -0.000   0.000   0.000
  0.000  -0.298   0.086   0.000  -0.149   0.000   0.388  -0.112   0.000   0.194  -0.233   0.061   0.000   0.000   0.000  -0.000
 -0.000  -0.000  -0.001   0.000  -0.001   0.000   0.000   0.001   0.000   0.001  -0.000   0.000   0.345  -0.274   0.000  -0.045
  0.000  -0.000   0.001   0.000   0.000   0.000   0.000  -0.001   0.000  -0.000  -0.000   0.000  -0.274   0.345   0.000   0.038
  0.000   0.000   0.000   0.000   0.000  -0.000   0.000   0.000  -0.000   0.000   0.000   0.000   0.000   0.000   0.072   0.000
  0.000   0.000   0.000  -0.000   0.000   0.000  -0.000  -0.000   0.000  -0.000   0.000  -0.000  -0.045   0.038   0.000   0.008
  0.000   0.000  -0.000   0.000  -0.000  -0.000  -0.000   0.000   0.000   0.000   0.000  -0.000   0.038  -0.045   0.000  -0.008
  0.000   0.000   0.000   0.000   0.000   0.000   0.000   0.000   0.000   0.000   0.000   0.000   0.000   0.000  -0.006  -0.000
 total augmentation occupancy for first ion, spin component:           2
  1.861   0.000   0.000  -1.455   0.000  -0.992   0.000   0.000   0.714   0.000   0.000   0.000   0.000   0.000  -0.000   0.000
  0.000   0.705  -0.038   0.000   0.065   0.000  -0.420   0.029   0.000  -0.049  -0.058   0.079  -0.000  -0.000   0.000   0.000
  0.000  -0.038   2.641  -0.000   1.168   0.000   0.029  -1.367  -0.000  -0.585   0.017  -0.023  -0.000   0.000   0.000  -0.000
 -1.455   0.000   0.000   1.861   0.000   0.714   0.000   0.000  -0.992   0.000  -0.000   0.000   0.000   0.000  -0.000   0.000
  0.000   0.065   1.168   0.000   1.292   0.000  -0.049  -0.585   0.000  -0.692  -0.029   0.040  -0.000   0.000   0.000  -0.000
 -0.992   0.000   0.000   0.714   0.000   0.450  -0.000   0.000  -0.342   0.000   0.000   0.000   0.000   0.000   0.000   0.000
  0.000  -0.420   0.029   0.000  -0.049   0.000   0.167  -0.013   0.000   0.023   0.058  -0.090  -0.000  -0.000   0.000  -0.000
  0.000   0.029  -1.367   0.000  -0.585   0.000  -0.013   0.628   0.000   0.284  -0.017   0.026   0.000  -0.000   0.000   0.000
  0.714   0.000  -0.000  -0.992   0.000  -0.342   0.000   0.000   0.450   0.000   0.000   0.000   0.000   0.000   0.000   0.000
  0.000  -0.049  -0.585   0.000  -0.692   0.000   0.023   0.284   0.000   0.300   0.029  -0.045   0.000  -0.000   0.000   0.000
  0.000  -0.058   0.017  -0.000  -0.029   0.000   0.058  -0.017  -0.000   0.029  -0.174   0.061   0.000   0.000   0.000  -0.000
  0.000   0.079  -0.023   0.000   0.040   0.000  -0.090   0.026   0.000  -0.045   0.061  -0.011  -0.000  -0.000   0.000   0.000
  0.000  -0.000  -0.000   0.000  -0.000   0.000  -0.000   0.000   0.000   0.000   0.000  -0.000  -0.011   0.006   0.000   0.006
  0.000  -0.000   0.000   0.000   0.000   0.000  -0.000  -0.000   0.000  -0.000   0.000  -0.000   0.006  -0.011   0.000  -0.004
 -0.000   0.000   0.000  -0.000   0.000   0.000   0.000   0.000   0.000   0.000   0.000   0.000   0.000   0.000  -0.005   0.000
  0.000   0.000  -0.000   0.000  -0.000   0.000  -0.000   0.000   0.000   0.000  -0.000   0.000   0.006  -0.004   0.000  -0.001
  0.000   0.000   0.000   0.000   0.000   0.000  -0.000  -0.000   0.000  -0.000  -0.000   0.000  -0.004   0.006   0.000   0.001
  0.000   0.000  -0.000   0.000   0.000  -0.000   0.000   0.000  -0.000   0.000   0.000   0.000   0.000   0.000   0.001   0.000


------------------------ aborting loop because EDIFF is reached ----------------------------------------


    CHARGE:  cpu time    0.0851: real time    0.0851
    FORLOC:  cpu time    0.0014: real time    0.0014
    FORNL :  cpu time    0.0134: real time    0.0134
    STRESS:  cpu time    0.0386: real time    0.0386
    FORCOR:  cpu time    0.0638: real time    0.0638
    FORHAR:  cpu time    0.0082: real time    0.0082
    MIXING:  cpu time    0.0030: real time    0.0030
    OFIELD:  cpu time    0.0000: real time    0.0000

  FORCE on cell =-STRESS in cart. coord.  units (eV):
  Direction    XX          YY          ZZ          XY          YZ          ZX
  --------------------------------------------------------------------------------------
  Alpha Z     0.79177     0.79177     0.79177
  Ewald    -267.17750   330.15792   330.15792     0.00000  -564.40109    -0.00000
  Hartree   417.87507   815.33071   815.33071    -0.00000  -364.92010    -0.00000
  E(xc)    -106.78503  -106.06297  -106.06297     0.00000    -0.72239     0.00000
  Local    -660.36921 -1634.47454 -1634.47454     0.00000   908.63234     0.00000
  n-local   156.14871   160.13613   160.13613     0.00000    -3.96299     0.00000
  augment   143.81838   133.95728   133.95728    -0.00000     9.85841    -0.00000
  Kinetic   315.64646   300.15802   300.15802     0.00000    15.48967    -0.00000
  Fock        0.00000     0.00000     0.00000     0.00000     0.00000     0.00000
  -------------------------------------------------------------------------------------
  Total      -0.05136    -0.00569    -0.00569     0.00000    -0.02614     0.00000
  in kB      -0.02438    -0.00270    -0.00270     0.00000    -0.01241     0.00000
  external pressure =       -0.01 kB  Pullay stress =        0.00 kB


 VOLUME and BASIS-vectors are now :
 -----------------------------------------------------------------------------
  energy-cutoff  :      450.00
  volume of cell :     3375.00
      direct lattice vectors                 reciprocal lattice vectors
    15.000000000  0.000000000  0.000000000     0.066666667  0.000000000  0.000000000
     0.000000000 15.000000000  0.000000000     0.000000000  0.066666667  0.000000000
     0.000000000  0.000000000 15.000000000     0.000000000  0.000000000  0.066666667

  length of vectors
    15.000000000 15.000000000 15.000000000     0.066666667  0.066666667  0.066666667


 FORCES acting on ions
    electron-ion (+dipol)            ewald-force                    non-local-force                 convergence-correction
 -----------------------------------------------------------------------------------------------
   0.277E-13 -.144E+00 -.144E+00   0.626E-16 0.140E+00 0.140E+00   0.000E+00 0.418E-02 0.418E-02   0.899E-13 -.900E-03 -.900E-03
   0.335E-12 0.197E+03 -.197E+03   -.125E-16 -.199E+03 0.199E+03   0.000E+00 0.164E+01 -.165E+01   0.119E-13 -.131E-03 -.220E-03
   0.333E-12 -.197E+03 0.197E+03   -.996E-16 0.199E+03 -.199E+03   0.000E+00 -.165E+01 0.164E+01   0.610E-13 -.220E-03 -.131E-03
 -----------------------------------------------------------------------------------------------
   0.695E-12 -.547E-02 -.547E-02   -.496E-16 0.000E+00 0.000E+00   0.000E+00 0.215E-03 0.215E-03   0.163E-12 -.125E-02 -.125E-02
 
 
 POSITION                                       TOTAL-FORCE (eV/Angst)
 -----------------------------------------------------------------------------------
      7.50000      8.25039      8.25039         0.000000      0.001950      0.001950
      7.50000      6.81259      9.68702         0.000000     -0.003962      0.002012
      7.50000      9.68702      6.81259         0.000000      0.002012     -0.003962
 -----------------------------------------------------------------------------------
    total drift:                                0.000000     -0.006505     -0.006505


--------------------------------------------------------------------------------------------------------



  FREE ENERGIE OF THE ION-ELECTRON SYSTEM (eV)
  ---------------------------------------------------
  free  energy   TOTEN  =        -9.44093871 eV

  energy  without entropy=       -9.44920228  energy(sigma->0) =       -9.44300460
 
 d Force = 0.7908539E-04[-0.372E-04, 0.195E-03]  d Energy = 0.1157550E-03-0.367E-04
 d Force =-0.4093222E+00[-0.394E+00,-0.424E+00]  d Ewald  =-0.4093305E+00 0.835E-05


--------------------------------------------------------------------------------------------------------


    POTLOK:  cpu time    0.0694: real time    0.0694


--------------------------------------------------------------------------------------------------------




--------------------------------------------------------------------------------------------------------


  
 reached required accuracy - stopping structural energy minimisation
     LOOP+:  cpu time    2.9865: real time    3.0793
    4ORBIT:  cpu time    0.0001: real time    0.0001

 total amount of memory used by VASP on root node    39262. kBytes
========================================================================

   base      :      30000. kBytes
   nonlr-proj:         79. kBytes
   fftplans  :       2467. kBytes
   grid      :       6195. kBytes
   one-center:         31. kBytes
   wavefun   :        490. kBytes
 
  
  
 General timing and accounting informations for this job:
 ========================================================
  
                  Total CPU time used (sec):      129.739
                            User time (sec):      127.736
                          System time (sec):        2.004
                         Elapsed time (sec):      133.685
  
                   Maximum memory used (kb):      129964.
                   Average memory used (kb):           0.
  
                          Minor page faults:        51790
                          Major page faults:            0
                 Voluntary context switches:         9763
