 vasp.5.4.1 05Feb16 (build Mar 19 2020 08:54:17) complex                        
  
 executed on           IFC91_ompi date 2022.03.14  17:11:34
 running on   96 total cores
 distrk:  each k-point on   96 cores,    1 groups
 distr:  one band on NCORES_PER_BAND=  24 cores,    4 groups


--------------------------------------------------------------------------------------------------------


 INCAR:
 POTCAR:    PAW_PBE Ni 02Aug2007                  
 POTCAR:    PAW_PBE Cl 06Sep2000                  

 ----------------------------------------------------------------------------- 
|                                                                             |
|           W    W    AA    RRRRR   N    N  II  N    N   GGGG   !!!           |
|           W    W   A  A   R    R  NN   N  II  NN   N  G    G  !!!           |
|           W    W  A    A  R    R  N N  N  II  N N  N  G       !!!           |
|           W WW W  AAAAAA  RRRRR   N  N N  II  N  N N  G  GGG   !            |
|           WW  WW  A    A  R   R   N   NN  II  N   NN  G    G                |
|           W    W  A    A  R    R  N    N  II  N    N   GGGG   !!!           |
|                                                                             |
|      For optimal performance we recommend to set                            |
|        NCORE= 4 - approx SQRT( number of cores)                             |
|      NCORE specifies how many cores store one orbital (NPAR=cpu/NCORE).     |
|      This setting can  greatly improve the performance of VASP for DFT.     |
|      The default, NPAR=number of cores might be grossly inefficient         |
|      on modern multi-core architectures or massively parallel machines.     |
|      Do your own testing !!!!                                               |
|      Unfortunately you need to use the default for GW and RPA calculations. |
|      (for HF NCORE is supported but not extensively tested yet)             |
|                                                                             |
 ----------------------------------------------------------------------------- 

 POTCAR:    PAW_PBE Ni 02Aug2007                  
   VRHFIN =Ni:                                                                  
   LEXCH  = PE                                                                  
   EATOM  =  1077.6739 eV,   79.2068 Ry                                         
                                                                                
   TITEL  = PAW_PBE Ni 02Aug2007                                                
   LULTRA =        F    use ultrasoft PP ?                                      
   IUNSCR =        1    unscreen: 0-lin 1-nonlin 2-no                           
   RPACOR =    2.000    partial core radius                                     
   POMASS =   58.690; ZVAL   =   10.000    mass and valenz                      
   RCORE  =    2.300    outmost cutoff radius                                   
   RWIGS  =    2.430; RWIGS  =    1.286    wigner-seitz radius (au A)           
   ENMAX  =  269.532; ENMIN  =  202.149 eV                                      
   RCLOC  =    1.201    cutoff for local pot                                    
   LCOR   =        T    correct aug charges                                     
   LPAW   =        T    paw PP                                                  
   EAUG   =  544.565                                                            
   DEXC   =    0.000                                                            
   RMAX   =    2.357    core radius for proj-oper                               
   RAUG   =    1.300    factor for augmentation sphere                          
   RDEP   =    2.390    radius for radial grids                                 
   RDEPT  =    1.838    core radius for aug-charge                              
                                                                                
   Atomic configuration                                                         
    9 entries                                                                   
     n  l   j            E        occ.                                          
     1  0  0.50     -8206.4253   2.0000                                         
     2  0  0.50      -976.1748   2.0000                                         
     2  1  1.50      -839.0571   6.0000                                         
     3  0  0.50      -105.9991   2.0000                                         
     3  1  1.50       -66.4603   6.0000                                         
     3  2  2.50        -4.6458   9.0000                                         
     4  0  0.50        -4.4926   1.0000                                         
     4  1  1.50        -4.0817   0.0000                                         
     4  3  2.50        -1.3606   0.0000                                         
   Description                                                                  
     l       E           TYP  RCUT    TYP  RCUT                                 
     2     -4.6457903     23  2.300                                             
     2     -6.0063729     23  2.300                                             
     0     -4.4925590     23  2.300                                             
     0      5.0102601     23  2.300                                             
     1     -2.7211652     23  2.300                                             
     1     16.5183231     23  2.300                                             
  local pseudopotential read in
  partial core-charges read in
  partial kinetic energy density read in
  atomic valenz-charges read in
  non local Contribution for L=           2  read in
    real space projection operators read in
  non local Contribution for L=           2  read in
    real space projection operators read in
  non local Contribution for L=           0  read in
    real space projection operators read in
  non local Contribution for L=           0  read in
    real space projection operators read in
  non local Contribution for L=           1  read in
    real space projection operators read in
  non local Contribution for L=           1  read in
    real space projection operators read in
    PAW grid and wavefunctions read in
 
   number of l-projection  operators is LMAX  =           6
   number of lm-projection operators is LMMAX =          18
 
 POTCAR:    PAW_PBE Cl 06Sep2000                  
   VRHFIN =Cl: s2p5                                                             
   LEXCH  = PE                                                                  
   EATOM  =   409.7259 eV,   30.1140 Ry                                         
                                                                                
   TITEL  = PAW_PBE Cl 06Sep2000                                                
   LULTRA =        F    use ultrasoft PP ?                                      
   IUNSCR =        1    unscreen: 0-lin 1-nonlin 2-no                           
   RPACOR =    1.500    partial core radius                                     
   POMASS =   35.453; ZVAL   =    7.000    mass and valenz                      
   RCORE  =    1.900    outmost cutoff radius                                   
   RWIGS  =    2.100; RWIGS  =    1.111    wigner-seitz radius (au A)           
   ENMAX  =  262.472; ENMIN  =  196.854 eV                                      
   ICORE  =        2    local potential                                         
   LCOR   =        T    correct aug charges                                     
   LPAW   =        T    paw PP                                                  
   EAUG   =  356.192                                                            
   DEXC   =    0.000                                                            
   RMAX   =    1.945    core radius for proj-oper                               
   RAUG   =    1.300    factor for augmentation sphere                          
   RDEP   =    2.020    radius for radial grids                                 
   RDEPT  =    1.678    core radius for aug-charge                              
                                                                                
   Atomic configuration                                                         
    6 entries                                                                   
     n  l   j            E        occ.                                          
     1  0  0.50     -2751.1850   2.0000                                         
     2  0  0.50      -252.6861   2.0000                                         
     2  1  1.50      -191.6157   6.0000                                         
     3  0  0.50       -20.6916   2.0000                                         
     3  1  0.50        -8.5949   5.0000                                         
     3  2  1.50        -8.1635   0.0000                                         
   Description                                                                  
     l       E           TYP  RCUT    TYP  RCUT                                 
     0    -20.6915656     23  1.900                                             
     0    -22.0521482     23  1.900                                             
     1     -8.5948577     23  1.900                                             
     1     -5.3847331     23  1.900                                             
     2     -8.1634956     23  1.900                                             
  local pseudopotential read in
  partial core-charges read in
  partial kinetic energy density read in
  atomic valenz-charges read in
  non local Contribution for L=           0  read in
    real space projection operators read in
  non local Contribution for L=           0  read in
    real space projection operators read in
  non local Contribution for L=           1  read in
    real space projection operators read in
  non local Contribution for L=           1  read in
    real space projection operators read in
    PAW grid and wavefunctions read in
 
   number of l-projection  operators is LMAX  =           4
   number of lm-projection operators is LMMAX =           8
 

 ----------------------------------------------------------------------------- 
|                                                                             |
|  ADVICE TO THIS USER RUNNING 'VASP/VAMP'   (HEAR YOUR MASTER'S VOICE ...):  |
|                                                                             |
|      You have a (more or less) 'small supercell' and for smaller cells      |
|      it is recommended  to use the reciprocal-space projection scheme!      |
|      The real space optimization is not  efficient for small cells and it   |
|      is also less accurate ...                                              |
|      Therefore set LREAL=.FALSE. in the  INCAR file                         |
|                                                                             |
 ----------------------------------------------------------------------------- 

 Optimization of the real space projectors (new method)

 maximal supplied QI-value         = 16.25
 optimisation between [QCUT,QGAM] = [ 10.73, 21.61] = [ 32.22,130.83] Ry 
 Optimized for a Real-space Cutoff    1.34 Angstroem

   l    n(q)    QCUT    max X(q) W(low)/X(q) W(high)/X(q)  e(spline) 
   2      8    10.726    60.317    0.47E-03    0.39E-03    0.97E-07
   2      8    10.726    55.921    0.48E-03    0.39E-03    0.10E-06
   0      9    10.726    51.690    0.35E-03    0.32E-03    0.97E-07
   0      9    10.726    30.015    0.31E-03    0.29E-03    0.88E-07
   1      8    10.726    18.849    0.34E-03    0.47E-04    0.17E-06
   1      8    10.726    14.624    0.29E-03    0.31E-04    0.15E-06
 Optimization of the real space projectors (new method)

 maximal supplied QI-value         = 19.84
 optimisation between [QCUT,QGAM] = [ 10.71, 21.63] = [ 32.15,130.99] Ry 
 Optimized for a Real-space Cutoff    1.19 Angstroem

   l    n(q)    QCUT    max X(q) W(low)/X(q) W(high)/X(q)  e(spline) 
   0      8    10.715   168.010    0.38E-03    0.52E-04    0.59E-07
   0      8    10.715   164.674    0.37E-03    0.50E-04    0.57E-07
   1      7    10.715    69.222    0.20E-03    0.59E-03    0.70E-07
   1      7    10.715    56.786    0.19E-03    0.58E-03    0.68E-07
  PAW_PBE Ni 02Aug2007                  :
 energy of atom  1       EATOM=-1077.6739
 kinetic energy error for atom=    0.0038 (will be added to EATOM!!)
  PAW_PBE Cl 06Sep2000                  :
 energy of atom  2       EATOM= -409.7259
 kinetic energy error for atom=    0.0057 (will be added to EATOM!!)
 
 
 POSCAR: Ni Cell                                 
  positions in direct lattice
  velocities in cartesian coordinates
 exchange correlation table for  LEXCH =        8
   RHO(1)=    0.500       N(1)  =     2000
   RHO(2)=  100.500       N(2)  =     4000
 


--------------------------------------------------------------------------------------------------------


 ion  position               nearest neighbor table
   1  0.530  0.560  0.560-   4 2.28   5 2.28   2 2.28   3 2.28
   2  0.464  0.438  0.621-   1 2.28
   3  0.464  0.621  0.438-   1 2.28
   4  0.667  0.514  0.514-   1 2.28
   5  0.526  0.667  0.667-   1 2.28
 
  LATTYP: Found a simple cubic cell.
 ALAT       =    15.0000000000
  
  Lattice vectors:
  
 A1 = (  15.0000000000,   0.0000000000,   0.0000000000)
 A2 = (   0.0000000000,  15.0000000000,   0.0000000000)
 A3 = (   0.0000000000,   0.0000000000,  15.0000000000)


Analysis of symmetry for initial positions (statically):
=====================================================================
 Subroutine PRICEL returns:
 Original cell was already a primitive cell.
 

 Routine SETGRP: Setting up the symmetry group for a 
 simple cubic supercell.


 Subroutine GETGRP returns: Found  2 space group operations
 (whereof  2 operations were pure point group operations)
 out of a pool of 48 trial point group operations.


The static configuration has the point symmetry C_1h.


Analysis of symmetry for dynamics (positions and initial velocities):
=====================================================================
 Subroutine PRICEL returns:
 Original cell was already a primitive cell.
 

 Routine SETGRP: Setting up the symmetry group for a 
 simple cubic supercell.


 Subroutine GETGRP returns: Found  2 space group operations
 (whereof  2 operations were pure point group operations)
 out of a pool of 48 trial point group operations.


The dynamic configuration has the point symmetry C_1h.


Analysis of structural, dynamic, and magnetic symmetry:
=====================================================================
 Subroutine PRICEL returns:
 Original cell was already a primitive cell.
 

 Routine SETGRP: Setting up the symmetry group for a 
 simple cubic supercell.


 Subroutine GETGRP returns: Found  2 space group operations
 (whereof  2 operations were pure point group operations)
 out of a pool of 48 trial point group operations.


The magnetic configuration has the point symmetry C_1h.


 Subroutine INISYM returns: Found  2 space group operations
 (whereof  2 operations are pure point group operations),
 and found     1 'primitive' translations

 
 
 KPOINTS: k-points                                

Automatic generation of k-mesh.
Space group operators:
 irot       det(A)        alpha          n_x          n_y          n_z        tau_x        tau_y        tau_z
    1     1.000000     0.000000     1.000000     0.000000     0.000000     0.000000     0.000000     0.000000
    2    -1.000000   180.000000     0.000000    -0.707107     0.707107     0.000000     0.000000     0.000000
 
 Subroutine IBZKPT returns following result:
 ===========================================
 
 Found      1 irreducible k-points:
 
 Following reciprocal coordinates:
            Coordinates               Weight
  0.000000  0.000000  0.000000      1.000000
 
 Following cartesian coordinates:
            Coordinates               Weight
  0.000000  0.000000  0.000000      1.000000
 


--------------------------------------------------------------------------------------------------------




 Dimension of arrays:
   k-points           NKPTS =      1   k-points in BZ     NKDIM =      1   number of bands    NBANDS=     28
   number of dos      NEDOS =    301   number of ions     NIONS =      5
   non local maximal  LDIM  =      6   non local SUM 2l+1 LMDIM =     18
   total plane-waves  NPLWV = 512000
   max r-space proj   IRMAX =   1581   max aug-charges    IRDMAX=   5116
   dimension x,y,z NGX =    80 NGY =   80 NGZ =   80
   dimension x,y,z NGXF=   160 NGYF=  160 NGZF=  160
   support grid    NGXF=   160 NGYF=  160 NGZF=  160
   ions per type =               1   4
 NGX,Y,Z   is equivalent  to a cutoff of   8.87,  8.87,  8.87 a.u.
 NGXF,Y,Z  is equivalent  to a cutoff of  17.73, 17.73, 17.73 a.u.


 I would recommend the setting:
   dimension x,y,z NGX =    78 NGY =   78 NGZ =   78
 SYSTEM =  clean (100) surface                     
 POSCAR =  Ni Cell                                 

 Startparameter for this run:
   NWRITE =      2    write-flag & timer
   PREC   = normal    normal or accurate (medium, high low for compatibility)
   ISTART =      0    job   : 0-new  1-cont  2-samecut
   ICHARG =      2    charge: 1-file 2-atom 10-const
   ISPIN  =      2    spin polarized calculation?
   LNONCOLLINEAR =      F non collinear calculations
   LSORBIT =      F    spin-orbit coupling
   INIWAV =      1    electr: 0-lowe 1-rand  2-diag
   LASPH  =      F    aspherical Exc in radial PAW
   METAGGA=      F    non-selfconsistent MetaGGA calc.

 Electronic Relaxation 1
   ENCUT  =  450.0 eV  33.07 Ry    5.75 a.u.  25.95 25.95 25.95*2*pi/ulx,y,z
   ENINI  =  450.0     initial cutoff
   ENAUG  =  544.6 eV  augmentation charge cutoff
   NELM   =     60;   NELMIN=  2; NELMDL= -5     # of ELM steps 
   EDIFF  = 0.1E-05   stopping-criterion for ELM
   LREAL  =      T    real-space projection
   NLSPLINE    = F    spline interpolate recip. space projectors
   LCOMPAT=      F    compatible to vasp.4.4
   GGA_COMPAT  = T    GGA compatible to vasp.4.4-vasp.4.6
   LMAXPAW     = -100 max onsite density
   LMAXMIX     =    2 max onsite mixed and CHGCAR
   VOSKOWN=      0    Vosko Wilk Nusair interpolation
   ROPT   =   -0.00050  -0.00050
 Ionic relaxation
   EDIFFG = -.1E-01   stopping-criterion for IOM
   NSW    =    250    number of steps for IOM
   NBLOCK =      1;   KBLOCK =    250    inner block; outer block 
   IBRION =      2    ionic relax: 0-MD 1-quasi-New 2-CG
   NFREE  =      1    steps in history (QN), initial steepest desc. (CG)
   ISIF   =      2    stress and relaxation
   IWAVPR =     11    prediction:  0-non 1-charg 2-wave 3-comb
   ISYM   =      2    0-nonsym 1-usesym 2-fastsym
   LCORR  =      T    Harris-Foulkes like correction to forces

   POTIM  = 0.1000    time-step for ionic-motion
   TEIN   =    0.0    initial temperature
   TEBEG  =    0.0;   TEEND  =   0.0 temperature during run
   SMASS  =  -3.00    Nose mass-parameter (am)
   estimated Nose-frequenzy (Omega)   =  0.10E-29 period in steps =****** mass=  -0.514E-26a.u.
   SCALEE = 1.0000    scale energy and forces
   NPACO  =    256;   APACO  = 16.0  distance and # of slots for P.C.
   PSTRESS=    0.0 pullay stress

  Mass of Ions in am
   POMASS =  58.69 35.45
  Ionic Valenz
   ZVAL   =  10.00  7.00
  Atomic Wigner-Seitz radii
   RWIGS  =  -1.00 -1.00
  virtual crystal weights 
   VCA    =   1.00  1.00
   NELECT =      38.0000    total number of electrons
   NUPDOWN=      -1.0000    fix difference up-down

 DOS related values:
   EMIN   =  10.00;   EMAX   =-10.00  energy-range for DOS
   EFERMI =   0.00
   ISMEAR =     2;   SIGMA  =   0.20  broadening in eV -4-tet -1-fermi 0-gaus

 Electronic relaxation 2 (details)
   IALGO  =     68    algorithm
   LDIAG  =      T    sub-space diagonalisation (order eigenvalues)
   LSUBROT=      F    optimize rotation matrix (better conditioning)
   TURBO    =      0    0=normal 1=particle mesh
   IRESTART =      0    0=no restart 2=restart with 2 vectors
   NREBOOT  =      0    no. of reboots
   NMIN     =      0    reboot dimension
   EREF     =   0.00    reference energy to select bands
   IMIX   =      4    mixing-type and parameters
     AMIX     =   0.40;   BMIX     =  1.00
     AMIX_MAG =   1.60;   BMIX_MAG =  1.00
     AMIN     =   0.10
     WC   =   100.;   INIMIX=   1;  MIXPRE=   1;  MAXMIX= -45

 Intra band minimization:
   WEIMIN = 0.0010     energy-eigenvalue tresh-hold
   EBREAK =  0.89E-08  absolut break condition
   DEPER  =   0.30     relativ break condition  

   TIME   =   0.40     timestep for ELM

  volume/ion in A,a.u.               =     675.00      4555.12
  Fermi-wavevector in a.u.,A,eV,Ry     =   0.366926  0.693389  1.831813  0.134634
  Thomas-Fermi vector in A             =   1.291644
 
 Write flags
   LWAVE  =      F    write WAVECAR
   LCHARG =      F    write CHGCAR
   LVTOT  =      F    write LOCPOT, total local potential
   LVHAR  =      F    write LOCPOT, Hartree potential only
   LELF   =      F    write electronic localiz. function (ELF)
   LORBIT =      0    0 simple, 1 ext, 2 COOP (PROOUT)


 Dipole corrections
   LMONO  =      F    monopole corrections only (constant potential shift)
   LDIPOL =      F    correct potential (dipole corrections)
   IDIPOL =      0    1-x, 2-y, 3-z, 4-all directions 
   EPSILON=  1.0000000 bulk dielectric constant

 Exchange correlation treatment:
   GGA     =    --    GGA type
   LEXCH   =     8    internal setting for exchange type
   VOSKOWN=      0    Vosko Wilk Nusair interpolation
   LHFCALC =     F    Hartree Fock is set to
   LHFONE  =     F    Hartree Fock one center treatment
   AEXX    =    0.0000 exact exchange contribution

 Linear response parameters
   LEPSILON=     F    determine dielectric tensor
   LRPA    =     F    only Hartree local field effects (RPA)
   LNABLA  =     F    use nabla operator in PAW spheres
   LVEL    =     F    velocity operator in full k-point grid
   LINTERFAST=   F  fast interpolation
   KINTER  =     0    interpolate to denser k-point grid
   CSHIFT  =0.1000    complex shift for real part using Kramers Kronig
   OMEGAMAX=  -1.0    maximum frequency
   DEG_THRESHOLD= 0.2000000E-02 threshold for treating states as degnerate
   RTIME   =    0.100 relaxation time in fs

 Orbital magnetization related:
   ORBITALMAG=     F  switch on orbital magnetization
   LCHIMAG   =     F  perturbation theory with respect to B field
   DQ        =  0.001000  dq finite difference perturbation B field



--------------------------------------------------------------------------------------------------------


 conjugate gradient relaxation of ions
 charge density and potential will be updated during run
 spin polarized calculation
 RMM-DIIS sequential band-by-band and
  variant of blocked Davidson during initial phase
 perform sub-space diagonalisation
    before iterative eigenvector-optimisation
 modified Broyden-mixing scheme, WC =      100.0
 initial mixing is a Kerker type mixing with AMIX =  0.4000 and BMIX =      1.0000
 Hartree-type preconditioning will be used
 using additional bands            9
 real space projection scheme for non local part
 use partial core corrections
 calculate Harris-corrections to forces 
   (improved forces if not selfconsistent)
 use gradient corrections 
 use of overlap-Matrix (Vanderbilt PP)
 Methfessel and Paxton  Order N= 2 SIGMA  =   0.20


--------------------------------------------------------------------------------------------------------


  energy-cutoff  :      450.00
  volume of cell :     3375.00
      direct lattice vectors                 reciprocal lattice vectors
    15.000000000  0.000000000  0.000000000     0.066666667  0.000000000  0.000000000
     0.000000000 15.000000000  0.000000000     0.000000000  0.066666667  0.000000000
     0.000000000  0.000000000 15.000000000     0.000000000  0.000000000  0.066666667

  length of vectors
    15.000000000 15.000000000 15.000000000     0.066666667  0.066666667  0.066666667


 
 k-points in units of 2pi/SCALE and weight: k-points                                
   0.00000000  0.00000000  0.00000000       1.000
 
 k-points in reciprocal lattice and weights: k-points                                
   0.00000000  0.00000000  0.00000000       1.000
 
 position of ions in fractional coordinates (direct lattice) 
   0.52976667  0.55997921  0.55997921
   0.46373593  0.43781228  0.62137643
   0.46373593  0.62137643  0.43781228
   0.66662696  0.51353060  0.51353060
   0.52613452  0.66730148  0.66730148
 
 position of ions in cartesian coordinates  (Angst):
   7.94650003  8.39968812  8.39968812
   6.95603889  6.56718423  9.32064642
   6.95603889  9.32064642  6.56718423
   9.99940433  7.70295905  7.70295905
   7.89201786 10.00952218 10.00952218
 


--------------------------------------------------------------------------------------------------------


 k-point  1 :   0.0000 0.0000 0.0000  plane waves:   72935

 maximum and minimum number of plane-waves per node :      3049     3028

 maximum number of plane-waves:     72935
 maximum index in each direction: 
   IXMAX=   25   IYMAX=   25   IZMAX=   25
   IXMIN=  -25   IYMIN=  -25   IZMIN=  -25

 WARNING: aliasing errors must be expected set NGX to 102 to avoid them
 WARNING: aliasing errors must be expected set NGY to 102 to avoid them
 WARNING: aliasing errors must be expected set NGZ to 102 to avoid them
 aliasing errors are usually negligible using standard VASP settings
 and one can safely disregard these warnings

 real space projection operators:
  total allocation   :        470.33 KBytes
  max/ min on nodes  :         38.92          5.69


 parallel 3D FFT for wavefunctions:
    minimum data exchange during FFTs selected (reduces bandwidth)
 parallel 3D FFT for charge:
    minimum data exchange during FFTs selected (reduces bandwidth)


 total amount of memory used by VASP on root node    39525. kBytes
========================================================================

   base      :      30000. kBytes
   nonlr-proj:        145. kBytes
   fftplans  :       2467. kBytes
   grid      :       6195. kBytes
   one-center:         31. kBytes
   wavefun   :        687. kBytes
 
     INWAV:  cpu time    0.0000: real time    0.0000
 Broyden mixing: mesh for mixing (old mesh)
   NGX = 51   NGY = 51   NGZ = 51
  (NGX  =160   NGY  =160   NGZ  =160)
  gives a total of 132651 points

 initial charge density was supplied:
 charge density of overlapping atoms calculated
 number of electron      38.0000000 magnetization       5.0000000
 keeping initial charge density in first step


--------------------------------------------------------------------------------------------------------


 Maximum index for non-local projection operator           60
 Maximum index for augmentation-charges            0 (set IRDMAX)


--------------------------------------------------------------------------------------------------------


 First call to EWALD:  gamma=   0.118
 Maximum number of real-space cells 3x 3x 3
 Maximum number of reciprocal cells 3x 3x 3

 FEWALD executed in parallel
    FEWALD:  cpu time    0.0022: real time    0.0025


----------------------------------------- Iteration    1(   1)  ---------------------------------------


    POTLOK:  cpu time    0.0835: real time    0.0893
    SETDIJ:  cpu time    0.0096: real time    0.0106
     EDDAV:  cpu time    0.1878: real time    0.2224
       DOS:  cpu time    0.0057: real time    0.0066
    --------------------------------------------
      LOOP:  cpu time    0.2904: real time    0.3360

 eigenvalue-minimisations  :   144
 total energy-change (2. order) : 0.2717843E+03  (-0.7387320E+03)
 number of electron      38.0000000 magnetization       5.0000000
 augmentation part       38.0000000 magnetization       5.0000000

 Free energy of the ion-electron system (eV)
  ---------------------------------------------------
  alpha Z        PSCENC =         1.93304625
  Ewald energy   TEWEN  =       993.07683034
  -Hartree energ DENC   =     -3361.44271924
  -exchange      EXHF   =         0.00000000
  -V(xc)+E(xc)   XCENC  =       109.45833581
  PAW double counting   =      2263.59379011    -2330.87333214
  entropy T*S    EENTRO =         0.02286816
  eigenvalues    EBANDS =      -120.53532888
  atomic energy  EATOM  =      2716.55079528
  Solvation  Ediel_sol  =         0.00000000
  ---------------------------------------------------
  free energy    TOTEN  =       271.78428569 eV

  energy without entropy =      271.76141753  energy(sigma->0) =      271.77856865


--------------------------------------------------------------------------------------------------------




----------------------------------------- Iteration    1(   2)  ---------------------------------------


     EDDAV:  cpu time    0.1402: real time    0.1402
       DOS:  cpu time    0.0003: real time    0.0003
    --------------------------------------------
      LOOP:  cpu time    0.1422: real time    0.1474

 eigenvalue-minimisations  :   180
 total energy-change (2. order) :-0.1876891E+03  (-0.1813968E+03)
 number of electron      38.0000000 magnetization       5.0000000
 augmentation part       38.0000000 magnetization       5.0000000

 Free energy of the ion-electron system (eV)
  ---------------------------------------------------
  alpha Z        PSCENC =         1.93304625
  Ewald energy   TEWEN  =       993.07683034
  -Hartree energ DENC   =     -3361.44271924
  -exchange      EXHF   =         0.00000000
  -V(xc)+E(xc)   XCENC  =       109.45833581
  PAW double counting   =      2263.59379011    -2330.87333214
  entropy T*S    EENTRO =         0.00808018
  eigenvalues    EBANDS =      -308.20965532
  atomic energy  EATOM  =      2716.55079528
  Solvation  Ediel_sol  =         0.00000000
  ---------------------------------------------------
  free energy    TOTEN  =        84.09517127 eV

  energy without entropy =       84.08709109  energy(sigma->0) =       84.09315123


--------------------------------------------------------------------------------------------------------




----------------------------------------- Iteration    1(   3)  ---------------------------------------


     EDDAV:  cpu time    0.1319: real time    0.1323
       DOS:  cpu time    0.0002: real time    0.0002
    --------------------------------------------
      LOOP:  cpu time    0.1332: real time    0.1398

 eigenvalue-minimisations  :   168
 total energy-change (2. order) :-0.9519390E+02  (-0.9355976E+02)
 number of electron      38.0000000 magnetization       5.0000000
 augmentation part       38.0000000 magnetization       5.0000000

 Free energy of the ion-electron system (eV)
  ---------------------------------------------------
  alpha Z        PSCENC =         1.93304625
  Ewald energy   TEWEN  =       993.07683034
  -Hartree energ DENC   =     -3361.44271924
  -exchange      EXHF   =         0.00000000
  -V(xc)+E(xc)   XCENC  =       109.45833581
  PAW double counting   =      2263.59379011    -2330.87333214
  entropy T*S    EENTRO =        -0.03854536
  eigenvalues    EBANDS =      -403.35693361
  atomic energy  EATOM  =      2716.55079528
  Solvation  Ediel_sol  =         0.00000000
  ---------------------------------------------------
  free energy    TOTEN  =       -11.09873255 eV

  energy without entropy =      -11.06018719  energy(sigma->0) =      -11.08909621


--------------------------------------------------------------------------------------------------------




----------------------------------------- Iteration    1(   4)  ---------------------------------------


     EDDAV:  cpu time    0.1048: real time    0.1048
       DOS:  cpu time    0.0002: real time    0.0002
    --------------------------------------------
      LOOP:  cpu time    0.1062: real time    0.1121

 eigenvalue-minimisations  :   124
 total energy-change (2. order) :-0.8486537E+01  (-0.8420304E+01)
 number of electron      38.0000000 magnetization       5.0000000
 augmentation part       38.0000000 magnetization       5.0000000

 Free energy of the ion-electron system (eV)
  ---------------------------------------------------
  alpha Z        PSCENC =         1.93304625
  Ewald energy   TEWEN  =       993.07683034
  -Hartree energ DENC   =     -3361.44271924
  -exchange      EXHF   =         0.00000000
  -V(xc)+E(xc)   XCENC  =       109.45833581
  PAW double counting   =      2263.59379011    -2330.87333214
  entropy T*S    EENTRO =        -0.04398874
  eigenvalues    EBANDS =      -411.83802725
  atomic energy  EATOM  =      2716.55079528
  Solvation  Ediel_sol  =         0.00000000
  ---------------------------------------------------
  free energy    TOTEN  =       -19.58526958 eV

  energy without entropy =      -19.54128084  energy(sigma->0) =      -19.57427239


--------------------------------------------------------------------------------------------------------




----------------------------------------- Iteration    1(   5)  ---------------------------------------


     EDDAV:  cpu time    0.1243: real time    0.1243
       DOS:  cpu time    0.0002: real time    0.0002
    CHARGE:  cpu time    0.0978: real time    0.1001
    MIXING:  cpu time    0.0097: real time    0.0108
    --------------------------------------------
      LOOP:  cpu time    0.2331: real time    0.2426

 eigenvalue-minimisations  :   156
 total energy-change (2. order) :-0.1249075E+00  (-0.1248858E+00)
 number of electron      37.9999984 magnetization       4.7575339
 augmentation part        0.4295419 magnetization       3.3498548

 Broyden mixing:
  rms(total) = 0.30339E+01    rms(broyden)= 0.30335E+01
  rms(prec ) = 0.33814E+01
  weight for this iteration     100.00

 Free energy of the ion-electron system (eV)
  ---------------------------------------------------
  alpha Z        PSCENC =         1.93304625
  Ewald energy   TEWEN  =       993.07683034
  -Hartree energ DENC   =     -3361.44271924
  -exchange      EXHF   =         0.00000000
  -V(xc)+E(xc)   XCENC  =       109.45833581
  PAW double counting   =      2263.59379011    -2330.87333214
  entropy T*S    EENTRO =        -0.04362196
  eigenvalues    EBANDS =      -411.96330153
  atomic energy  EATOM  =      2716.55079528
  Solvation  Ediel_sol  =         0.00000000
  ---------------------------------------------------
  free energy    TOTEN  =       -19.71017708 eV

  energy without entropy =      -19.66655512  energy(sigma->0) =      -19.69927159


--------------------------------------------------------------------------------------------------------




----------------------------------------- Iteration    1(   6)  ---------------------------------------


    POTLOK:  cpu time    0.0678: real time    0.0678
    SETDIJ:  cpu time    0.0041: real time    0.0041
    EDDIAG:  cpu time    0.0261: real time    0.0273
  RMM-DIIS:  cpu time    0.1020: real time    0.1021
    ORTHCH:  cpu time    0.0047: real time    0.0047
       DOS:  cpu time    0.0002: real time    0.0002
    CHARGE:  cpu time    0.0855: real time    0.0855
    MIXING:  cpu time    0.0029: real time    0.0036
    --------------------------------------------
      LOOP:  cpu time    0.2950: real time    0.3032

 eigenvalue-minimisations  :   131
 total energy-change (2. order) :-0.1404765E+02  (-0.1733896E+02)
 number of electron      37.9999970 magnetization       4.5110252
 augmentation part        4.6246396 magnetization       3.9401588

 Broyden mixing:
  rms(total) = 0.73861E+01    rms(broyden)= 0.73859E+01
  rms(prec ) = 0.76036E+01
  weight for this iteration     100.00

 eigenvalues of (default mixing * dielectric matrix)
  average eigenvalue GAMMA=   0.2917
  0.2917

 Free energy of the ion-electron system (eV)
  ---------------------------------------------------
  alpha Z        PSCENC =         1.93304625
  Ewald energy   TEWEN  =       993.07683034
  -Hartree energ DENC   =     -3271.85135315
  -exchange      EXHF   =         0.00000000
  -V(xc)+E(xc)   XCENC  =       112.42285884
  PAW double counting   =      2287.99227583    -2339.63786211
  entropy T*S    EENTRO =        -0.04667758
  eigenvalues    EBANDS =      -534.19773939
  atomic energy  EATOM  =      2716.55079528
  Solvation  Ediel_sol  =         0.00000000
  ---------------------------------------------------
  free energy    TOTEN  =       -33.75782569 eV

  energy without entropy =      -33.71114811  energy(sigma->0) =      -33.74615630


--------------------------------------------------------------------------------------------------------




----------------------------------------- Iteration    1(   7)  ---------------------------------------


    POTLOK:  cpu time    0.0688: real time    0.0688
    SETDIJ:  cpu time    0.0037: real time    0.0037
    EDDIAG:  cpu time    0.0220: real time    0.0220
  RMM-DIIS:  cpu time    0.0600: real time    0.0600
    ORTHCH:  cpu time    0.0048: real time    0.0048
       DOS:  cpu time    0.0002: real time    0.0002
    CHARGE:  cpu time    0.0808: real time    0.0808
    MIXING:  cpu time    0.0021: real time    0.0025
    --------------------------------------------
      LOOP:  cpu time    0.2439: real time    0.2458

 eigenvalue-minimisations  :   112
 total energy-change (2. order) : 0.1554069E+02  (-0.1814137E+01)
 number of electron      37.9999972 magnetization       4.7501850
 augmentation part        4.1471523 magnetization       0.8597140

 Broyden mixing:
  rms(total) = 0.37139E+01    rms(broyden)= 0.37139E+01
  rms(prec ) = 0.39699E+01
  weight for this iteration     100.00

 eigenvalues of (default mixing * dielectric matrix)
  average eigenvalue GAMMA=   0.4723
  0.4723  0.4723

 Free energy of the ion-electron system (eV)
  ---------------------------------------------------
  alpha Z        PSCENC =         1.93304625
  Ewald energy   TEWEN  =       993.07683034
  -Hartree energ DENC   =     -3298.70154568
  -exchange      EXHF   =         0.00000000
  -V(xc)+E(xc)   XCENC  =       111.14309289
  PAW double counting   =      2391.51734514    -2451.65663313
  entropy T*S    EENTRO =        -0.02984871
  eigenvalues    EBANDS =      -482.05021736
  atomic energy  EATOM  =      2716.55079528
  Solvation  Ediel_sol  =         0.00000000
  ---------------------------------------------------
  free energy    TOTEN  =       -18.21713499 eV

  energy without entropy =      -18.18728628  energy(sigma->0) =      -18.20967281


--------------------------------------------------------------------------------------------------------




----------------------------------------- Iteration    1(   8)  ---------------------------------------


    POTLOK:  cpu time    0.0645: real time    0.0645
    SETDIJ:  cpu time    0.0036: real time    0.0036
    EDDIAG:  cpu time    0.0218: real time    0.0218
  RMM-DIIS:  cpu time    0.0588: real time    0.0588
    ORTHCH:  cpu time    0.0049: real time    0.0049
       DOS:  cpu time    0.0002: real time    0.0002
    CHARGE:  cpu time    0.0807: real time    0.0807
    MIXING:  cpu time    0.0021: real time    0.0024
    --------------------------------------------
      LOOP:  cpu time    0.2377: real time    0.2446

 eigenvalue-minimisations  :   112
 total energy-change (2. order) : 0.5117597E+01  (-0.1895326E+01)
 number of electron      37.9999982 magnetization       4.6281998
 augmentation part        1.5253771 magnetization       2.7753163

 Broyden mixing:
  rms(total) = 0.13785E+01    rms(broyden)= 0.13780E+01
  rms(prec ) = 0.15008E+01
  weight for this iteration     100.00

 eigenvalues of (default mixing * dielectric matrix)
  average eigenvalue GAMMA=   0.5516
  0.9020  0.3764  0.3764

 Free energy of the ion-electron system (eV)
  ---------------------------------------------------
  alpha Z        PSCENC =         1.93304625
  Ewald energy   TEWEN  =       993.07683034
  -Hartree energ DENC   =     -3336.32119303
  -exchange      EXHF   =         0.00000000
  -V(xc)+E(xc)   XCENC  =       109.50556606
  PAW double counting   =      2485.42635584    -2554.06605522
  entropy T*S    EENTRO =        -0.03967016
  eigenvalues    EBANDS =      -429.16521300
  atomic energy  EATOM  =      2716.55079528
  Solvation  Ediel_sol  =         0.00000000
  ---------------------------------------------------
  free energy    TOTEN  =       -13.09953762 eV

  energy without entropy =      -13.05986746  energy(sigma->0) =      -13.08962008


--------------------------------------------------------------------------------------------------------




----------------------------------------- Iteration    1(   9)  ---------------------------------------


    POTLOK:  cpu time    0.0647: real time    0.0647
    SETDIJ:  cpu time    0.0035: real time    0.0035
    EDDIAG:  cpu time    0.0219: real time    0.0219
  RMM-DIIS:  cpu time    0.0607: real time    0.0607
    ORTHCH:  cpu time    0.0048: real time    0.0048
       DOS:  cpu time    0.0002: real time    0.0002
    CHARGE:  cpu time    0.0807: real time    0.0807
    MIXING:  cpu time    0.0021: real time    0.0021
    --------------------------------------------
      LOOP:  cpu time    0.2401: real time    0.2464

 eigenvalue-minimisations  :   115
 total energy-change (2. order) : 0.1242960E-01  (-0.6949597E-01)
 number of electron      37.9999981 magnetization       4.4730694
 augmentation part        1.8470624 magnetization       2.2970009

 Broyden mixing:
  rms(total) = 0.65102E+00    rms(broyden)= 0.65100E+00
  rms(prec ) = 0.73765E+00
  weight for this iteration     100.00

 eigenvalues of (default mixing * dielectric matrix)
  average eigenvalue GAMMA=   0.6730
  1.2851  0.3985  0.3985  0.6097

 Free energy of the ion-electron system (eV)
  ---------------------------------------------------
  alpha Z        PSCENC =         1.93304625
  Ewald energy   TEWEN  =       993.07683034
  -Hartree energ DENC   =     -3330.92353629
  -exchange      EXHF   =         0.00000000
  -V(xc)+E(xc)   XCENC  =       109.40796123
  PAW double counting   =      2569.79623705    -2639.38501140
  entropy T*S    EENTRO =        -0.03402235
  eigenvalues    EBANDS =      -433.50940812
  atomic energy  EATOM  =      2716.55079528
  Solvation  Ediel_sol  =         0.00000000
  ---------------------------------------------------
  free energy    TOTEN  =       -13.08710802 eV

  energy without entropy =      -13.05308567  energy(sigma->0) =      -13.07860243


--------------------------------------------------------------------------------------------------------




----------------------------------------- Iteration    1(  10)  ---------------------------------------


    POTLOK:  cpu time    0.0648: real time    0.0648
    SETDIJ:  cpu time    0.0035: real time    0.0035
    EDDIAG:  cpu time    0.0218: real time    0.0218
  RMM-DIIS:  cpu time    0.0606: real time    0.0606
    ORTHCH:  cpu time    0.0049: real time    0.0049
       DOS:  cpu time    0.0002: real time    0.0002
    CHARGE:  cpu time    0.0806: real time    0.0806
    MIXING:  cpu time    0.0023: real time    0.0023
    --------------------------------------------
      LOOP:  cpu time    0.2401: real time    0.2465

 eigenvalue-minimisations  :   112
 total energy-change (2. order) : 0.1359243E+00  (-0.5650126E-01)
 number of electron      37.9999977 magnetization       4.4149446
 augmentation part        2.5388225 magnetization       1.6490319

 Broyden mixing:
  rms(total) = 0.39396E+00    rms(broyden)= 0.39381E+00
  rms(prec ) = 0.42919E+00
  weight for this iteration     100.00

 eigenvalues of (default mixing * dielectric matrix)
  average eigenvalue GAMMA=   0.6682
  1.0847  1.0847  0.3951  0.3951  0.3813

 Free energy of the ion-electron system (eV)
  ---------------------------------------------------
  alpha Z        PSCENC =         1.93304625
  Ewald energy   TEWEN  =       993.07683034
  -Hartree energ DENC   =     -3323.76637774
  -exchange      EXHF   =         0.00000000
  -V(xc)+E(xc)   XCENC  =       109.27437708
  PAW double counting   =      2620.53436179    -2689.72718432
  entropy T*S    EENTRO =        -0.01586507
  eigenvalues    EBANDS =      -440.81116732
  atomic energy  EATOM  =      2716.55079528
  Solvation  Ediel_sol  =         0.00000000
  ---------------------------------------------------
  free energy    TOTEN  =       -12.95118370 eV

  energy without entropy =      -12.93531864  energy(sigma->0) =      -12.94721744


--------------------------------------------------------------------------------------------------------




----------------------------------------- Iteration    1(  11)  ---------------------------------------


    POTLOK:  cpu time    0.0642: real time    0.0642
    SETDIJ:  cpu time    0.0035: real time    0.0035
    EDDIAG:  cpu time    0.0219: real time    0.0219
  RMM-DIIS:  cpu time    0.0610: real time    0.0610
    ORTHCH:  cpu time    0.0047: real time    0.0047
       DOS:  cpu time    0.0002: real time    0.0002
    CHARGE:  cpu time    0.0805: real time    0.0805
    MIXING:  cpu time    0.0024: real time    0.0024
    --------------------------------------------
      LOOP:  cpu time    0.2399: real time    0.2464

 eigenvalue-minimisations  :   113
 total energy-change (2. order) : 0.5110159E-01  (-0.7433980E-02)
 number of electron      37.9999977 magnetization       4.3392144
 augmentation part        2.3316271 magnetization       1.7432016

 Broyden mixing:
  rms(total) = 0.13377E+00    rms(broyden)= 0.13361E+00
  rms(prec ) = 0.13896E+00
  weight for this iteration     100.00

 eigenvalues of (default mixing * dielectric matrix)
  average eigenvalue GAMMA=   0.6735
  0.9531  0.9531  0.3954  0.3954  0.8063  0.5378

 Free energy of the ion-electron system (eV)
  ---------------------------------------------------
  alpha Z        PSCENC =         1.93304625
  Ewald energy   TEWEN  =       993.07683034
  -Hartree energ DENC   =     -3326.40940622
  -exchange      EXHF   =         0.00000000
  -V(xc)+E(xc)   XCENC  =       109.26094363
  PAW double counting   =      2618.54580657    -2687.76121943
  entropy T*S    EENTRO =        -0.02325748
  eigenvalues    EBANDS =      -438.07362104
  atomic energy  EATOM  =      2716.55079528
  Solvation  Ediel_sol  =         0.00000000
  ---------------------------------------------------
  free energy    TOTEN  =       -12.90008211 eV

  energy without entropy =      -12.87682463  energy(sigma->0) =      -12.89426774


--------------------------------------------------------------------------------------------------------




----------------------------------------- Iteration    1(  12)  ---------------------------------------


    POTLOK:  cpu time    0.0644: real time    0.0644
    SETDIJ:  cpu time    0.0035: real time    0.0035
    EDDIAG:  cpu time    0.0218: real time    0.0218
  RMM-DIIS:  cpu time    0.0605: real time    0.0606
    ORTHCH:  cpu time    0.0048: real time    0.0048
       DOS:  cpu time    0.0002: real time    0.0002
    CHARGE:  cpu time    0.0809: real time    0.0809
    MIXING:  cpu time    0.0025: real time    0.0025
    --------------------------------------------
      LOOP:  cpu time    0.2398: real time    0.2464

 eigenvalue-minimisations  :   113
 total energy-change (2. order) : 0.9893757E-02  (-0.2044251E-02)
 number of electron      37.9999977 magnetization       4.2193886
 augmentation part        2.3609587 magnetization       1.6035357

 Broyden mixing:
  rms(total) = 0.11990E+00    rms(broyden)= 0.11988E+00
  rms(prec ) = 0.12879E+00
  weight for this iteration     100.00

 eigenvalues of (default mixing * dielectric matrix)
  average eigenvalue GAMMA=   0.8365
  1.6750  1.0879  1.0879  0.3959  0.3959  0.7657  0.4475

 Free energy of the ion-electron system (eV)
  ---------------------------------------------------
  alpha Z        PSCENC =         1.93304625
  Ewald energy   TEWEN  =       993.07683034
  -Hartree energ DENC   =     -3325.82539766
  -exchange      EXHF   =         0.00000000
  -V(xc)+E(xc)   XCENC  =       109.29346201
  PAW double counting   =      2639.41259837    -2708.76035530
  entropy T*S    EENTRO =        -0.01662095
  eigenvalues    EBANDS =      -438.55454670
  atomic energy  EATOM  =      2716.55079528
  Solvation  Ediel_sol  =         0.00000000
  ---------------------------------------------------
  free energy    TOTEN  =       -12.89018835 eV

  energy without entropy =      -12.87356741  energy(sigma->0) =      -12.88603312


--------------------------------------------------------------------------------------------------------




----------------------------------------- Iteration    1(  13)  ---------------------------------------


    POTLOK:  cpu time    0.0648: real time    0.0648
    SETDIJ:  cpu time    0.0035: real time    0.0035
    EDDIAG:  cpu time    0.0218: real time    0.0218
  RMM-DIIS:  cpu time    0.0588: real time    0.0588
    ORTHCH:  cpu time    0.0049: real time    0.0049
       DOS:  cpu time    0.0002: real time    0.0002
    CHARGE:  cpu time    0.0808: real time    0.0808
    MIXING:  cpu time    0.0026: real time    0.0026
    --------------------------------------------
      LOOP:  cpu time    0.2388: real time    0.2452

 eigenvalue-minimisations  :   112
 total energy-change (2. order) :-0.3920131E-01  (-0.2350784E-02)
 number of electron      37.9999977 magnetization       4.1606227
 augmentation part        2.3901028 magnetization       1.5156813

 Broyden mixing:
  rms(total) = 0.13039E+00    rms(broyden)= 0.13038E+00
  rms(prec ) = 0.14386E+00
  weight for this iteration     100.00

 eigenvalues of (default mixing * dielectric matrix)
  average eigenvalue GAMMA=   0.8635
  1.5944  1.5944  0.9162  0.9162  0.3957  0.3957  0.6375  0.4577

 Free energy of the ion-electron system (eV)
  ---------------------------------------------------
  alpha Z        PSCENC =         1.93304625
  Ewald energy   TEWEN  =       993.07683034
  -Hartree energ DENC   =     -3325.40592485
  -exchange      EXHF   =         0.00000000
  -V(xc)+E(xc)   XCENC  =       109.28050877
  PAW double counting   =      2661.80206888    -2731.21982206
  entropy T*S    EENTRO =        -0.01105455
  eigenvalues    EBANDS =      -438.93583772
  atomic energy  EATOM  =      2716.55079528
  Solvation  Ediel_sol  =         0.00000000
  ---------------------------------------------------
  free energy    TOTEN  =       -12.92938967 eV

  energy without entropy =      -12.91833512  energy(sigma->0) =      -12.92662603


--------------------------------------------------------------------------------------------------------




----------------------------------------- Iteration    1(  14)  ---------------------------------------


    POTLOK:  cpu time    0.0644: real time    0.0644
    SETDIJ:  cpu time    0.0035: real time    0.0035
    EDDIAG:  cpu time    0.0218: real time    0.0218
  RMM-DIIS:  cpu time    0.0588: real time    0.0588
    ORTHCH:  cpu time    0.0048: real time    0.0048
       DOS:  cpu time    0.0002: real time    0.0002
    CHARGE:  cpu time    0.0808: real time    0.0808
    MIXING:  cpu time    0.0028: real time    0.0028
    --------------------------------------------
      LOOP:  cpu time    0.2384: real time    0.2449

 eigenvalue-minimisations  :   112
 total energy-change (2. order) :-0.3254493E-01  (-0.1540719E-02)
 number of electron      37.9999978 magnetization       4.1399545
 augmentation part        2.3068611 magnetization       1.5628194

 Broyden mixing:
  rms(total) = 0.55489E-01    rms(broyden)= 0.55382E-01
  rms(prec ) = 0.57166E-01
  weight for this iteration     100.00

 eigenvalues of (default mixing * dielectric matrix)
  average eigenvalue GAMMA=   0.8745
  1.9706  1.0366  1.0366  0.9734  0.9734  0.3957  0.3957  0.4634  0.6249

 Free energy of the ion-electron system (eV)
  ---------------------------------------------------
  alpha Z        PSCENC =         1.93304625
  Ewald energy   TEWEN  =       993.07683034
  -Hartree energ DENC   =     -3326.58322559
  -exchange      EXHF   =         0.00000000
  -V(xc)+E(xc)   XCENC  =       109.24808744
  PAW double counting   =      2663.89613064    -2733.34381583
  entropy T*S    EENTRO =        -0.03237964
  eigenvalues    EBANDS =      -437.70740349
  atomic energy  EATOM  =      2716.55079528
  Solvation  Ediel_sol  =         0.00000000
  ---------------------------------------------------
  free energy    TOTEN  =       -12.96193460 eV

  energy without entropy =      -12.92955496  energy(sigma->0) =      -12.95383969


--------------------------------------------------------------------------------------------------------




----------------------------------------- Iteration    1(  15)  ---------------------------------------


    POTLOK:  cpu time    0.0648: real time    0.0648
    SETDIJ:  cpu time    0.0035: real time    0.0035
    EDDIAG:  cpu time    0.0219: real time    0.0219
  RMM-DIIS:  cpu time    0.0607: real time    0.0607
    ORTHCH:  cpu time    0.0050: real time    0.0050
       DOS:  cpu time    0.0002: real time    0.0002
    CHARGE:  cpu time    0.0806: real time    0.0806
    MIXING:  cpu time    0.0029: real time    0.0029
    --------------------------------------------
      LOOP:  cpu time    0.2409: real time    0.2473

 eigenvalue-minimisations  :   116
 total energy-change (2. order) :-0.7575996E-02  (-0.2727309E-03)
 number of electron      37.9999978 magnetization       4.1020165
 augmentation part        2.3079959 magnetization       1.5230060

 Broyden mixing:
  rms(total) = 0.24316E-01    rms(broyden)= 0.24309E-01
  rms(prec ) = 0.25160E-01
  weight for this iteration     100.00

 eigenvalues of (default mixing * dielectric matrix)
  average eigenvalue GAMMA=   0.9296
  2.3216  1.1297  1.1297  1.0521  1.0521  0.3957  0.3957  0.4578  0.6807  0.6807

 Free energy of the ion-electron system (eV)
  ---------------------------------------------------
  alpha Z        PSCENC =         1.93304625
  Ewald energy   TEWEN  =       993.07683034
  -Hartree energ DENC   =     -3326.43110701
  -exchange      EXHF   =         0.00000000
  -V(xc)+E(xc)   XCENC  =       109.24778490
  PAW double counting   =      2668.60905150    -2738.09942105
  entropy T*S    EENTRO =        -0.03036619
  eigenvalues    EBANDS =      -437.82612462
  atomic energy  EATOM  =      2716.55079528
  Solvation  Ediel_sol  =         0.00000000
  ---------------------------------------------------
  free energy    TOTEN  =       -12.96951059 eV

  energy without entropy =      -12.93914440  energy(sigma->0) =      -12.96191905


--------------------------------------------------------------------------------------------------------




----------------------------------------- Iteration    1(  16)  ---------------------------------------


    POTLOK:  cpu time    0.0647: real time    0.0647
    SETDIJ:  cpu time    0.0035: real time    0.0035
    EDDIAG:  cpu time    0.0219: real time    0.0219
  RMM-DIIS:  cpu time    0.0611: real time    0.0612
    ORTHCH:  cpu time    0.0047: real time    0.0047
       DOS:  cpu time    0.0002: real time    0.0002
    CHARGE:  cpu time    0.0809: real time    0.0809
    MIXING:  cpu time    0.0030: real time    0.0030
    --------------------------------------------
      LOOP:  cpu time    0.2413: real time    0.2476

 eigenvalue-minimisations  :   113
 total energy-change (2. order) :-0.3170710E-01  (-0.3405100E-03)
 number of electron      37.9999978 magnetization       4.0776799
 augmentation part        2.3247464 magnetization       1.4853371

 Broyden mixing:
  rms(total) = 0.26094E-01    rms(broyden)= 0.26088E-01
  rms(prec ) = 0.28445E-01
  weight for this iteration     100.00

 eigenvalues of (default mixing * dielectric matrix)
  average eigenvalue GAMMA=   0.9367
  2.3919  1.1139  1.1139  1.1487  1.1487  0.3957  0.3957  0.7410  0.7410  0.4582
  0.6550

 Free energy of the ion-electron system (eV)
  ---------------------------------------------------
  alpha Z        PSCENC =         1.93304625
  Ewald energy   TEWEN  =       993.07683034
  -Hartree energ DENC   =     -3326.18481471
  -exchange      EXHF   =         0.00000000
  -V(xc)+E(xc)   XCENC  =       109.22566082
  PAW double counting   =      2672.30617019    -2741.78483544
  entropy T*S    EENTRO =        -0.02608086
  eigenvalues    EBANDS =      -438.09798956
  atomic energy  EATOM  =      2716.55079528
  Solvation  Ediel_sol  =         0.00000000
  ---------------------------------------------------
  free energy    TOTEN  =       -13.00121769 eV

  energy without entropy =      -12.97513683  energy(sigma->0) =      -12.99469748


--------------------------------------------------------------------------------------------------------




----------------------------------------- Iteration    1(  17)  ---------------------------------------


    POTLOK:  cpu time    0.0645: real time    0.0645
    SETDIJ:  cpu time    0.0036: real time    0.0036
    EDDIAG:  cpu time    0.0217: real time    0.0217
  RMM-DIIS:  cpu time    0.0611: real time    0.0611
    ORTHCH:  cpu time    0.0048: real time    0.0048
       DOS:  cpu time    0.0002: real time    0.0002
    CHARGE:  cpu time    0.0846: real time    0.0846
    MIXING:  cpu time    0.0032: real time    0.0032
    --------------------------------------------
      LOOP:  cpu time    0.2450: real time    0.2514

 eigenvalue-minimisations  :   115
 total energy-change (2. order) :-0.2262629E-01  (-0.1458634E-03)
 number of electron      37.9999978 magnetization       4.0538036
 augmentation part        2.3173615 magnetization       1.4682880

 Broyden mixing:
  rms(total) = 0.13487E-01    rms(broyden)= 0.13485E-01
  rms(prec ) = 0.14594E-01
  weight for this iteration     100.00

 eigenvalues of (default mixing * dielectric matrix)
  average eigenvalue GAMMA=   0.9370
  2.2831  1.5722  1.1157  1.1157  0.9864  0.9864  0.3957  0.3957  0.4578  0.7039
  0.6158  0.6158

 Free energy of the ion-electron system (eV)
  ---------------------------------------------------
  alpha Z        PSCENC =         1.93304625
  Ewald energy   TEWEN  =       993.07683034
  -Hartree energ DENC   =     -3326.26191412
  -exchange      EXHF   =         0.00000000
  -V(xc)+E(xc)   XCENC  =       109.20523322
  PAW double counting   =      2672.37066172    -2741.83892016
  entropy T*S    EENTRO =        -0.02790899
  eigenvalues    EBANDS =      -438.03166752
  atomic energy  EATOM  =      2716.55079528
  Solvation  Ediel_sol  =         0.00000000
  ---------------------------------------------------
  free energy    TOTEN  =       -13.02384399 eV

  energy without entropy =      -12.99593500  energy(sigma->0) =      -13.01686674


--------------------------------------------------------------------------------------------------------




----------------------------------------- Iteration    1(  18)  ---------------------------------------


    POTLOK:  cpu time    0.0646: real time    0.0646
    SETDIJ:  cpu time    0.0035: real time    0.0035
    EDDIAG:  cpu time    0.0218: real time    0.0218
  RMM-DIIS:  cpu time    0.0655: real time    0.0655
    ORTHCH:  cpu time    0.0049: real time    0.0049
       DOS:  cpu time    0.0002: real time    0.0002
    CHARGE:  cpu time    0.0810: real time    0.0810
    MIXING:  cpu time    0.0033: real time    0.0033
    --------------------------------------------
      LOOP:  cpu time    0.2462: real time    0.2516

 eigenvalue-minimisations  :   112
 total energy-change (2. order) :-0.2069087E-01  (-0.1172384E-03)
 number of electron      37.9999978 magnetization       4.0237988
 augmentation part        2.3082714 magnetization       1.4457920

 Broyden mixing:
  rms(total) = 0.50156E-02    rms(broyden)= 0.50066E-02
  rms(prec ) = 0.54755E-02
  weight for this iteration     100.00

 eigenvalues of (default mixing * dielectric matrix)
  average eigenvalue GAMMA=   1.0104
  2.3273  2.3273  1.1029  1.1029  1.0010  1.0010  1.0674  0.3957  0.3957  0.4581
  0.6588  0.6588  0.6381

 Free energy of the ion-electron system (eV)
  ---------------------------------------------------
  alpha Z        PSCENC =         1.93304625
  Ewald energy   TEWEN  =       993.07683034
  -Hartree energ DENC   =     -3326.34999418
  -exchange      EXHF   =         0.00000000
  -V(xc)+E(xc)   XCENC  =       109.18367612
  PAW double counting   =      2671.56428399    -2741.01761169
  entropy T*S    EENTRO =        -0.03014747
  eigenvalues    EBANDS =      -437.95541349
  atomic energy  EATOM  =      2716.55079528
  Solvation  Ediel_sol  =         0.00000000
  ---------------------------------------------------
  free energy    TOTEN  =       -13.04453485 eV

  energy without entropy =      -13.01438739  energy(sigma->0) =      -13.03699798


--------------------------------------------------------------------------------------------------------




----------------------------------------- Iteration    1(  19)  ---------------------------------------


    POTLOK:  cpu time    0.0646: real time    0.0646
    SETDIJ:  cpu time    0.0035: real time    0.0035
    EDDIAG:  cpu time    0.0217: real time    0.0217
  RMM-DIIS:  cpu time    0.0585: real time    0.0585
    ORTHCH:  cpu time    0.0048: real time    0.0048
       DOS:  cpu time    0.0002: real time    0.0002
    CHARGE:  cpu time    0.0808: real time    0.0808
    MIXING:  cpu time    0.0034: real time    0.0034
    --------------------------------------------
      LOOP:  cpu time    0.2388: real time    0.2452

 eigenvalue-minimisations  :   112
 total energy-change (2. order) :-0.1690980E-01  (-0.9500609E-04)
 number of electron      37.9999978 magnetization       4.0148309
 augmentation part        2.3084954 magnetization       1.4359711

 Broyden mixing:
  rms(total) = 0.39382E-02    rms(broyden)= 0.39378E-02
  rms(prec ) = 0.43893E-02
  weight for this iteration     100.00

 eigenvalues of (default mixing * dielectric matrix)
  average eigenvalue GAMMA=   1.0295
  2.6076  2.6076  1.1045  1.1045  1.0613  1.0613  0.3957  0.3957  0.8190  0.8190
  0.4582  0.6398  0.6697  0.6697

 Free energy of the ion-electron system (eV)
  ---------------------------------------------------
  alpha Z        PSCENC =         1.93304625
  Ewald energy   TEWEN  =       993.07683034
  -Hartree energ DENC   =     -3326.25662656
  -exchange      EXHF   =         0.00000000
  -V(xc)+E(xc)   XCENC  =       109.16486270
  PAW double counting   =      2671.65301185    -2741.09434029
  entropy T*S    EENTRO =        -0.02958794
  eigenvalues    EBANDS =      -438.05943628
  atomic energy  EATOM  =      2716.55079528
  Solvation  Ediel_sol  =         0.00000000
  ---------------------------------------------------
  free energy    TOTEN  =       -13.06144465 eV

  energy without entropy =      -13.03185671  energy(sigma->0) =      -13.05404767


--------------------------------------------------------------------------------------------------------




----------------------------------------- Iteration    1(  20)  ---------------------------------------


    POTLOK:  cpu time    0.0648: real time    0.0648
    SETDIJ:  cpu time    0.0036: real time    0.0035
    EDDIAG:  cpu time    0.0218: real time    0.0218
  RMM-DIIS:  cpu time    0.0586: real time    0.0586
    ORTHCH:  cpu time    0.0050: real time    0.0050
       DOS:  cpu time    0.0002: real time    0.0002
    CHARGE:  cpu time    0.0808: real time    0.0808
    MIXING:  cpu time    0.0037: real time    0.0037
    --------------------------------------------
      LOOP:  cpu time    0.2396: real time    0.2460

 eigenvalue-minimisations  :   112
 total energy-change (2. order) :-0.2869052E-02  (-0.1685795E-04)
 number of electron      37.9999978 magnetization       4.0101616
 augmentation part        2.3096231 magnetization       1.4302226

 Broyden mixing:
  rms(total) = 0.21531E-02    rms(broyden)= 0.21528E-02
  rms(prec ) = 0.23478E-02
  weight for this iteration     100.00

 eigenvalues of (default mixing * dielectric matrix)
  average eigenvalue GAMMA=   1.0438
  2.7982  2.6693  1.1041  1.1041  1.2023  1.2023  0.8926  0.8926  0.3957  0.3957
  0.4580  0.6448  0.6448  0.6267  0.6267

 Free energy of the ion-electron system (eV)
  ---------------------------------------------------
  alpha Z        PSCENC =         1.93304625
  Ewald energy   TEWEN  =       993.07683034
  -Hartree energ DENC   =     -3326.21733326
  -exchange      EXHF   =         0.00000000
  -V(xc)+E(xc)   XCENC  =       109.16116705
  PAW double counting   =      2671.69509189    -2741.13407398
  entropy T*S    EENTRO =        -0.02933687
  eigenvalues    EBANDS =      -438.10050040
  atomic energy  EATOM  =      2716.55079528
  Solvation  Ediel_sol  =         0.00000000
  ---------------------------------------------------
  free energy    TOTEN  =       -13.06431370 eV

  energy without entropy =      -13.03497684  energy(sigma->0) =      -13.05697949


--------------------------------------------------------------------------------------------------------




----------------------------------------- Iteration    1(  21)  ---------------------------------------


    POTLOK:  cpu time    0.0649: real time    0.0649
    SETDIJ:  cpu time    0.0035: real time    0.0035
    EDDIAG:  cpu time    0.0219: real time    0.0219
  RMM-DIIS:  cpu time    0.0588: real time    0.0588
    ORTHCH:  cpu time    0.0048: real time    0.0048
       DOS:  cpu time    0.0002: real time    0.0002
    CHARGE:  cpu time    0.0807: real time    0.0807
    MIXING:  cpu time    0.0038: real time    0.0038
    --------------------------------------------
      LOOP:  cpu time    0.2400: real time    0.2464

 eigenvalue-minimisations  :   107
 total energy-change (2. order) :-0.1287331E-02  (-0.3786656E-05)
 number of electron      37.9999978 magnetization       4.0056708
 augmentation part        2.3100964 magnetization       1.4252841

 Broyden mixing:
  rms(total) = 0.11308E-02    rms(broyden)= 0.11305E-02
  rms(prec ) = 0.12768E-02
  weight for this iteration     100.00

 eigenvalues of (default mixing * dielectric matrix)
  average eigenvalue GAMMA=   1.0567
  3.2521  2.1453  1.7080  1.1035  1.1035  1.0451  1.0451  0.3957  0.3957  0.8486
  0.8486  0.4581  0.6547  0.6547  0.6245  0.6245

 Free energy of the ion-electron system (eV)
  ---------------------------------------------------
  alpha Z        PSCENC =         1.93304625
  Ewald energy   TEWEN  =       993.07683034
  -Hartree energ DENC   =     -3326.19075796
  -exchange      EXHF   =         0.00000000
  -V(xc)+E(xc)   XCENC  =       109.15934883
  PAW double counting   =      2671.73931862    -2741.17918132
  entropy T*S    EENTRO =        -0.02925699
  eigenvalues    EBANDS =      -438.12574408
  atomic energy  EATOM  =      2716.55079528
  Solvation  Ediel_sol  =         0.00000000
  ---------------------------------------------------
  free energy    TOTEN  =       -13.06560104 eV

  energy without entropy =      -13.03634404  energy(sigma->0) =      -13.05828679


--------------------------------------------------------------------------------------------------------




----------------------------------------- Iteration    1(  22)  ---------------------------------------


    POTLOK:  cpu time    0.0645: real time    0.0645
    SETDIJ:  cpu time    0.0035: real time    0.0035
    EDDIAG:  cpu time    0.0219: real time    0.0219
  RMM-DIIS:  cpu time    0.0550: real time    0.0550
    ORTHCH:  cpu time    0.0048: real time    0.0048
       DOS:  cpu time    0.0002: real time    0.0002
    CHARGE:  cpu time    0.0807: real time    0.0807
    MIXING:  cpu time    0.0039: real time    0.0039
    --------------------------------------------
      LOOP:  cpu time    0.2358: real time    0.2420

 eigenvalue-minimisations  :   103
 total energy-change (2. order) :-0.1187441E-02  (-0.1953729E-05)
 number of electron      37.9999978 magnetization       4.0020600
 augmentation part        2.3105832 magnetization       1.4212388

 Broyden mixing:
  rms(total) = 0.45524E-03    rms(broyden)= 0.45475E-03
  rms(prec ) = 0.59002E-03
  weight for this iteration     100.00

 eigenvalues of (default mixing * dielectric matrix)
  average eigenvalue GAMMA=   1.1014
  3.5460  2.0856  2.0856  1.1029  1.1029  1.2331  1.2331  0.9309  0.9309  0.3957
  0.3957  0.4581  0.6217  0.6217  0.6763  0.6763  0.6276

 Free energy of the ion-electron system (eV)
  ---------------------------------------------------
  alpha Z        PSCENC =         1.93304625
  Ewald energy   TEWEN  =       993.07683034
  -Hartree energ DENC   =     -3326.15211644
  -exchange      EXHF   =         0.00000000
  -V(xc)+E(xc)   XCENC  =       109.15763598
  PAW double counting   =      2671.91329253    -2741.35605098
  entropy T*S    EENTRO =        -0.02909464
  eigenvalues    EBANDS =      -438.16112679
  atomic energy  EATOM  =      2716.55079528
  Solvation  Ediel_sol  =         0.00000000
  ---------------------------------------------------
  free energy    TOTEN  =       -13.06678848 eV

  energy without entropy =      -13.03769384  energy(sigma->0) =      -13.05951482


--------------------------------------------------------------------------------------------------------




----------------------------------------- Iteration    1(  23)  ---------------------------------------


    POTLOK:  cpu time    0.0646: real time    0.0646
    SETDIJ:  cpu time    0.0035: real time    0.0035
    EDDIAG:  cpu time    0.0219: real time    0.0219
  RMM-DIIS:  cpu time    0.0544: real time    0.0544
    ORTHCH:  cpu time    0.0047: real time    0.0047
       DOS:  cpu time    0.0002: real time    0.0002
    CHARGE:  cpu time    0.0807: real time    0.0807
    MIXING:  cpu time    0.0041: real time    0.0041
    --------------------------------------------
      LOOP:  cpu time    0.2354: real time    0.2420

 eigenvalue-minimisations  :    99
 total energy-change (2. order) :-0.6388210E-03  (-0.2934036E-05)
 number of electron      37.9999978 magnetization       4.0011629
 augmentation part        2.3104870 magnetization       1.4203692

 Broyden mixing:
  rms(total) = 0.24590E-03    rms(broyden)= 0.24585E-03
  rms(prec ) = 0.36247E-03
  weight for this iteration     100.00

 eigenvalues of (default mixing * dielectric matrix)
  average eigenvalue GAMMA=   1.1011
  3.7364  2.1693  2.1693  1.1030  1.1030  0.3957  0.3957  1.0376  1.0376  1.1171
  0.9105  0.9105  0.4581  0.6295  0.6295  0.7606  0.6179  0.6388

 Free energy of the ion-electron system (eV)
  ---------------------------------------------------
  alpha Z        PSCENC =         1.93304625
  Ewald energy   TEWEN  =       993.07683034
  -Hartree energ DENC   =     -3326.12484621
  -exchange      EXHF   =         0.00000000
  -V(xc)+E(xc)   XCENC  =       109.15611904
  PAW double counting   =      2671.89935484    -2741.34299605
  entropy T*S    EENTRO =        -0.02909982
  eigenvalues    EBANDS =      -438.18663096
  atomic energy  EATOM  =      2716.55079528
  Solvation  Ediel_sol  =         0.00000000
  ---------------------------------------------------
  free energy    TOTEN  =       -13.06742730 eV

  energy without entropy =      -13.03832747  energy(sigma->0) =      -13.06015234


--------------------------------------------------------------------------------------------------------




----------------------------------------- Iteration    1(  24)  ---------------------------------------


    POTLOK:  cpu time    0.0647: real time    0.0647
    SETDIJ:  cpu time    0.0035: real time    0.0035
    EDDIAG:  cpu time    0.0217: real time    0.0217
  RMM-DIIS:  cpu time    0.0451: real time    0.0451
    ORTHCH:  cpu time    0.0048: real time    0.0048
       DOS:  cpu time    0.0002: real time    0.0002
    CHARGE:  cpu time    0.0809: real time    0.0809
    MIXING:  cpu time    0.0042: real time    0.0042
    --------------------------------------------
      LOOP:  cpu time    0.2265: real time    0.2330

 eigenvalue-minimisations  :    84
 total energy-change (2. order) :-0.3669055E-04  (-0.5953474E-06)
 number of electron      37.9999978 magnetization       4.0005300
 augmentation part        2.3103932 magnetization       1.4197780

 Broyden mixing:
  rms(total) = 0.18677E-03    rms(broyden)= 0.18675E-03
  rms(prec ) = 0.29246E-03
  weight for this iteration     100.00

 eigenvalues of (default mixing * dielectric matrix)
  average eigenvalue GAMMA=   1.1241
  3.9284  2.2982  2.2982  1.1030  1.1030  1.2673  1.1367  1.1367  0.3957  0.3957
  0.9249  0.9249  0.4581  0.6250  0.6250  0.7468  0.7468  0.6218  0.6218

 Free energy of the ion-electron system (eV)
  ---------------------------------------------------
  alpha Z        PSCENC =         1.93304625
  Ewald energy   TEWEN  =       993.07683034
  -Hartree energ DENC   =     -3326.11418542
  -exchange      EXHF   =         0.00000000
  -V(xc)+E(xc)   XCENC  =       109.15562222
  PAW double counting   =      2671.85075621    -2741.29437311
  entropy T*S    EENTRO =        -0.02912817
  eigenvalues    EBANDS =      -438.19682759
  atomic energy  EATOM  =      2716.55079528
  Solvation  Ediel_sol  =         0.00000000
  ---------------------------------------------------
  free energy    TOTEN  =       -13.06746399 eV

  energy without entropy =      -13.03833582  energy(sigma->0) =      -13.06018195


--------------------------------------------------------------------------------------------------------




----------------------------------------- Iteration    1(  25)  ---------------------------------------


    POTLOK:  cpu time    0.0644: real time    0.0644
    SETDIJ:  cpu time    0.0036: real time    0.0036
    EDDIAG:  cpu time    0.0219: real time    0.0219
  RMM-DIIS:  cpu time    0.0466: real time    0.0466
    ORTHCH:  cpu time    0.0050: real time    0.0050
       DOS:  cpu time    0.0002: real time    0.0002
    CHARGE:  cpu time    0.0807: real time    0.0807
    MIXING:  cpu time    0.0045: real time    0.0045
    --------------------------------------------
      LOOP:  cpu time    0.2281: real time    0.2346

 eigenvalue-minimisations  :    84
 total energy-change (2. order) : 0.8550063E-05  (-0.3227973E-06)
 number of electron      37.9999978 magnetization       4.0005331
 augmentation part        2.3105718 magnetization       1.4196138

 Broyden mixing:
  rms(total) = 0.16406E-03    rms(broyden)= 0.16394E-03
  rms(prec ) = 0.22898E-03
  weight for this iteration     100.00

 eigenvalues of (default mixing * dielectric matrix)
  average eigenvalue GAMMA=   1.1618
  4.1431  2.4561  2.4561  1.1030  1.1030  1.4450  1.4450  1.0659  1.0659  0.3957
  0.3957  0.9136  0.9136  0.4581  0.6246  0.6246  0.6979  0.6979  0.6155  0.6155

 Free energy of the ion-electron system (eV)
  ---------------------------------------------------
  alpha Z        PSCENC =         1.93304625
  Ewald energy   TEWEN  =       993.07683034
  -Hartree energ DENC   =     -3326.09541965
  -exchange      EXHF   =         0.00000000
  -V(xc)+E(xc)   XCENC  =       109.15515257
  PAW double counting   =      2671.85289538    -2741.29657265
  entropy T*S    EENTRO =        -0.02908286
  eigenvalues    EBANDS =      -438.21510009
  atomic energy  EATOM  =      2716.55079528
  Solvation  Ediel_sol  =         0.00000000
  ---------------------------------------------------
  free energy    TOTEN  =       -13.06745544 eV

  energy without entropy =      -13.03837258  energy(sigma->0) =      -13.06018472


--------------------------------------------------------------------------------------------------------




----------------------------------------- Iteration    1(  26)  ---------------------------------------


    POTLOK:  cpu time    0.0644: real time    0.0644
    SETDIJ:  cpu time    0.0036: real time    0.0036
    EDDIAG:  cpu time    0.0218: real time    0.0218
  RMM-DIIS:  cpu time    0.0415: real time    0.0415
    ORTHCH:  cpu time    0.0050: real time    0.0050
       DOS:  cpu time    0.0002: real time    0.0002
    CHARGE:  cpu time    0.0825: real time    0.0825
    MIXING:  cpu time    0.0058: real time    0.0058
    --------------------------------------------
      LOOP:  cpu time    0.2262: real time    0.2323

 eigenvalue-minimisations  :    72
 total energy-change (2. order) :-0.2641238E-04  (-0.1178381E-06)
 number of electron      37.9999978 magnetization       4.0007486
 augmentation part        2.3105152 magnetization       1.4198857

 Broyden mixing:
  rms(total) = 0.11695E-03    rms(broyden)= 0.11695E-03
  rms(prec ) = 0.15500E-03
  weight for this iteration     100.00

 eigenvalues of (default mixing * dielectric matrix)
  average eigenvalue GAMMA=   1.1585
  4.2270  2.5545  2.5545  1.5473  1.5473  1.1030  1.1030  1.0813  1.0813  0.3957
  0.3957  0.9068  0.9068  0.4581  0.6228  0.6228  0.6459  0.6459  0.6746  0.6575
  0.5970

 Free energy of the ion-electron system (eV)
  ---------------------------------------------------
  alpha Z        PSCENC =         1.93304625
  Ewald energy   TEWEN  =       993.07683034
  -Hartree energ DENC   =     -3326.08439017
  -exchange      EXHF   =         0.00000000
  -V(xc)+E(xc)   XCENC  =       109.15491417
  PAW double counting   =      2671.87333645    -2741.31734838
  entropy T*S    EENTRO =        -0.02909977
  eigenvalues    EBANDS =      -438.22556601
  atomic energy  EATOM  =      2716.55079528
  Solvation  Ediel_sol  =         0.00000000
  ---------------------------------------------------
  free energy    TOTEN  =       -13.06748185 eV

  energy without entropy =      -13.03838208  energy(sigma->0) =      -13.06020691


--------------------------------------------------------------------------------------------------------




----------------------------------------- Iteration    1(  27)  ---------------------------------------


    POTLOK:  cpu time    0.0648: real time    0.0648
    SETDIJ:  cpu time    0.0035: real time    0.0035
    EDDIAG:  cpu time    0.0219: real time    0.0219
  RMM-DIIS:  cpu time    0.0378: real time    0.0378
    ORTHCH:  cpu time    0.0048: real time    0.0048
       DOS:  cpu time    0.0002: real time    0.0002
    CHARGE:  cpu time    0.0807: real time    0.0807
    MIXING:  cpu time    0.0048: real time    0.0048
    --------------------------------------------
      LOOP:  cpu time    0.2208: real time    0.2272

 eigenvalue-minimisations  :    64
 total energy-change (2. order) :-0.3469947E-04  (-0.5865695E-07)
 number of electron      37.9999978 magnetization       4.0011131
 augmentation part        2.3105484 magnetization       1.4202248

 Broyden mixing:
  rms(total) = 0.13582E-03    rms(broyden)= 0.13582E-03
  rms(prec ) = 0.16553E-03
  weight for this iteration     100.00

 eigenvalues of (default mixing * dielectric matrix)
  average eigenvalue GAMMA=   1.1724
  4.3525  2.8481  2.4566  1.9827  1.1030  1.1030  1.2278  1.0961  1.0961  0.3957
  0.3957  0.9456  0.9456  0.9246  0.4581  0.6248  0.6248  0.7645  0.6333  0.6333
  0.5904  0.5904

 Free energy of the ion-electron system (eV)
  ---------------------------------------------------
  alpha Z        PSCENC =         1.93304625
  Ewald energy   TEWEN  =       993.07683034
  -Hartree energ DENC   =     -3326.08085530
  -exchange      EXHF   =         0.00000000
  -V(xc)+E(xc)   XCENC  =       109.15482006
  PAW double counting   =      2671.88810909    -2741.33197744
  entropy T*S    EENTRO =        -0.02909428
  eigenvalues    EBANDS =      -438.22919054
  atomic energy  EATOM  =      2716.55079528
  Solvation  Ediel_sol  =         0.00000000
  ---------------------------------------------------
  free energy    TOTEN  =       -13.06751655 eV

  energy without entropy =      -13.03842227  energy(sigma->0) =      -13.06024298


--------------------------------------------------------------------------------------------------------




[...]


    POTLOK:  cpu time    0.0647: real time    0.0647
    SETDIJ:  cpu time    0.0035: real time    0.0035
    EDDIAG:  cpu time    0.0220: real time    0.0220
  RMM-DIIS:  cpu time    0.0586: real time    0.0586
    ORTHCH:  cpu time    0.0049: real time    0.0049
       DOS:  cpu time    0.0002: real time    0.0002
    CHARGE:  cpu time    0.0816: real time    0.0816
    MIXING:  cpu time    0.0023: real time    0.0023
    --------------------------------------------
      LOOP:  cpu time    0.2396: real time    0.2459

 eigenvalue-minimisations  :   106
 total energy-change (2. order) :-0.1388341E-04  (-0.7855643E-06)
 number of electron      37.9999991 magnetization       4.0254126
 augmentation part        2.2554664 magnetization       1.4388449

 Broyden mixing:
  rms(total) = 0.90711E-03    rms(broyden)= 0.90703E-03
  rms(prec ) = 0.94921E-03
  weight for this iteration     100.00

 eigenvalues of (default mixing * dielectric matrix)
  average eigenvalue GAMMA=   0.6667
  0.6667  0.6667

 Free energy of the ion-electron system (eV)
  ---------------------------------------------------
  alpha Z        PSCENC =         1.93304625
  Ewald energy   TEWEN  =      1184.81906198
  -Hartree energ DENC   =     -3512.62287754
  -exchange      EXHF   =         0.00000000
  -V(xc)+E(xc)   XCENC  =       110.04078964
  PAW double counting   =      2894.66773219    -2965.40684060
  entropy T*S    EENTRO =        -0.04594747
  eigenvalues    EBANDS =      -443.49599324
  atomic energy  EATOM  =      2716.55079528
  Solvation  Ediel_sol  =         0.00000000
  ---------------------------------------------------
  free energy    TOTEN  =       -13.56023352 eV

  energy without entropy =      -13.51428605  energy(sigma->0) =      -13.54874665


--------------------------------------------------------------------------------------------------------




----------------------------------------- Iteration   25(   4)  ---------------------------------------


    POTLOK:  cpu time    0.0644: real time    0.0644
    SETDIJ:  cpu time    0.0035: real time    0.0035
    EDDIAG:  cpu time    0.0218: real time    0.0218
  RMM-DIIS:  cpu time    0.0394: real time    0.0394
    ORTHCH:  cpu time    0.0048: real time    0.0048
       DOS:  cpu time    0.0002: real time    0.0002
    --------------------------------------------
      LOOP:  cpu time    0.1354: real time    0.1420

 eigenvalue-minimisations  :    70
 total energy-change (2. order) :-0.9488167E-06  (-0.7322474E-07)
 number of electron      37.9999991 magnetization       4.0254126
 augmentation part        2.2554664 magnetization       1.4388449

 Free energy of the ion-electron system (eV)
  ---------------------------------------------------
  alpha Z        PSCENC =         1.93304625
  Ewald energy   TEWEN  =      1184.81906198
  -Hartree energ DENC   =     -3512.62704755
  -exchange      EXHF   =         0.00000000
  -V(xc)+E(xc)   XCENC  =       110.04076634
  PAW double counting   =      2894.68002770    -2965.42005661
  entropy T*S    EENTRO =        -0.04595325
  eigenvalues    EBANDS =      -443.49087460
  atomic energy  EATOM  =      2716.55079528
  Solvation  Ediel_sol  =         0.00000000
  ---------------------------------------------------
  free energy    TOTEN  =       -13.56023447 eV

  energy without entropy =      -13.51428122  energy(sigma->0) =      -13.54874616


--------------------------------------------------------------------------------------------------------




 average (electrostatic) potential at core
  the test charge radii are     0.9791  0.9406
  (the norm of the test charge is              1.0000)
       1 -99.6507       2-101.4594       3-101.4594       4-101.4599       5-101.4610
 
 
 
 E-fermi :  -7.2873     XC(G=0):  -0.5811     alpha+bet : -0.2762


 spin component 1

 k-point     1 :       0.0000    0.0000    0.0000
  band No.  band energies     occupation 
      1     -21.3027      1.00000
      2     -20.9273      1.00000
      3     -20.9262      1.00000
      4     -20.9253      1.00000
      5     -11.5223      1.00000
      6     -11.5208      1.00000
      7     -11.5207      1.00000
      8     -11.1428      1.00000
      9     -10.9038      1.00000
     10     -10.9033      1.00000
     11      -9.4424      1.00000
     12      -9.4418      1.00000
     13      -9.4410      1.00000
     14      -8.2258      1.00000
     15      -8.2257      1.00000
     16      -8.2245      1.00000
     17      -8.1528      1.00000
     18      -8.1525      1.00000
     19      -7.6094      1.00400
     20      -7.6085      1.00425
     21      -7.6078      1.00444
     22      -0.6070      0.00000
     23       0.3566      0.00000
     24       0.3650      0.00000
     25       0.3713      0.00000
     26       0.4610      0.00000
     27       0.6972      0.00000
     28       0.7157      0.00000

 spin component 2

 k-point     1 :       0.0000    0.0000    0.0000
  band No.  band energies     occupation 
      1     -20.7793      1.00000
      2     -20.3733      1.00000
      3     -20.3720      1.00000
      4     -20.3709      1.00000
      5     -10.6435      1.00000
      6     -10.1632      1.00000
      7     -10.1615      1.00000
      8     -10.1611      1.00000
      9      -9.7555      1.00000
     10      -9.7546      1.00000
     11      -8.9062      1.00000
     12      -8.9057      1.00000
     13      -8.9051      1.00000
     14      -7.7422      0.99631
     15      -7.7421      0.99631
     16      -7.7410      0.99627
     17      -7.2871      0.49934
     18      -7.2871      0.49908
     19      -6.4473      0.00000
     20      -6.4462      0.00000
     21      -6.4452      0.00000
     22      -0.4688      0.00000
     23       0.4561      0.00000
     24       0.4606      0.00000
     25       0.4669      0.00000
     26       0.5123      0.00000
     27       0.7429      0.00000
     28       0.7500      0.00000


--------------------------------------------------------------------------------------------------------


 soft charge-density along one line, spin component           1
         0         1         2         3         4         5         6         7         8         9
 total charge-density along one line
 
 soft charge-density along one line, spin component           2
         0         1         2         3         4         5         6         7         8         9
 total charge-density along one line
 
 pseudopotential strength for first ion, spin component:           1
-13.714   0.036   0.031   0.041   0.108 -13.830   0.034   0.030
  0.036 -13.813  -0.018   0.036   0.031   0.034 -13.925  -0.017
  0.031  -0.018 -13.678  -0.109   0.043   0.030  -0.017 -13.795
  0.041   0.036  -0.109 -13.714   0.027   0.039   0.034  -0.104
  0.108   0.031   0.043   0.027 -13.727   0.103   0.030   0.041
-13.830   0.034   0.030   0.039   0.103 -13.899   0.033   0.028
  0.034 -13.925  -0.017   0.034   0.030   0.033 -13.989  -0.017
  0.030  -0.017 -13.795  -0.104   0.041   0.028  -0.017 -13.865
  0.039   0.034  -0.104 -13.830   0.026   0.037   0.033  -0.100
  0.103   0.030   0.041   0.026 -13.842   0.099   0.029   0.039
 -0.000   0.000   0.000  -0.000  -0.000  -0.000   0.000   0.000
 -0.000   0.000   0.000  -0.000  -0.000  -0.000   0.000   0.000
 -0.004   0.007   0.006   0.006  -0.002  -0.004   0.007   0.006
  0.006   0.007  -0.002  -0.004  -0.006   0.005   0.007  -0.002
 -0.005   0.006  -0.004  -0.005   0.007  -0.005   0.005  -0.004
 -0.006   0.010   0.008   0.007  -0.002  -0.006   0.009   0.008
  0.007   0.010  -0.002  -0.006  -0.008   0.007   0.009  -0.002
 -0.007   0.007  -0.005  -0.007   0.009  -0.007   0.007  -0.005
 pseudopotential strength for first ion, spin component:           2
-12.219  -0.019  -0.017  -0.022  -0.057 -12.407  -0.018  -0.016
 -0.019 -12.167   0.009  -0.019  -0.016  -0.018 -12.357   0.009
 -0.017   0.009 -12.239   0.058  -0.023  -0.016   0.009 -12.426
 -0.022  -0.019   0.058 -12.219  -0.014  -0.021  -0.018   0.056
 -0.057  -0.016  -0.023  -0.014 -12.213  -0.055  -0.016  -0.022
-12.407  -0.018  -0.016  -0.021  -0.055 -12.544  -0.017  -0.015
 -0.018 -12.357   0.009  -0.018  -0.016  -0.017 -12.496   0.009
 -0.016   0.009 -12.426   0.056  -0.022  -0.015   0.009 -12.562
 -0.021  -0.018   0.056 -12.407  -0.014  -0.020  -0.017   0.054
 -0.055  -0.016  -0.022  -0.014 -12.401  -0.053  -0.015  -0.021
 -0.000   0.000  -0.000  -0.000   0.000  -0.000   0.000  -0.000
 -0.000   0.000  -0.000  -0.000   0.000  -0.000   0.000  -0.000
  0.004  -0.006  -0.005  -0.004   0.001   0.003  -0.005  -0.004
 -0.004  -0.006   0.001   0.004   0.005  -0.004  -0.005   0.001
  0.004  -0.004   0.003   0.004  -0.005   0.004  -0.004   0.003
  0.005  -0.008  -0.007  -0.007   0.002   0.005  -0.007  -0.007
 -0.007  -0.008   0.002   0.005   0.007  -0.006  -0.007   0.002
  0.006  -0.007   0.004   0.006  -0.008   0.005  -0.006   0.004
 total augmentation occupancy for first ion, spin component:           1
  5.748  -0.128  -0.113  -0.148  -0.390  -3.613   0.236   0.206   0.271   0.714  -0.000   0.000   0.276  -0.347   0.318  -0.025
 -0.128   6.101   0.066  -0.128  -0.114   0.236  -4.262  -0.120   0.236   0.207  -0.004   0.000  -0.445  -0.445  -0.347   0.041
 -0.113   0.066   5.615   0.394  -0.155   0.206  -0.120  -3.370  -0.721   0.282   0.000  -0.000  -0.385   0.109   0.239   0.035
 -0.148  -0.128   0.394   5.748  -0.098   0.271   0.236  -0.721  -3.613   0.179  -0.000   0.000  -0.347   0.276   0.318   0.032
 -0.390  -0.114  -0.155  -0.098   5.794   0.714   0.207   0.282   0.179  -3.697  -0.000   0.000   0.096   0.381  -0.414  -0.009
 -3.613   0.236   0.206   0.271   0.714   3.178  -0.311  -0.270  -0.356  -0.939   0.000  -0.000  -0.306   0.385  -0.353   0.034
  0.236  -4.262  -0.120   0.236   0.207  -0.311   4.033   0.157  -0.311  -0.272   0.004  -0.001   0.493   0.493   0.385  -0.055
  0.206  -0.120  -3.370  -0.721   0.282  -0.270   0.157   2.859   0.949  -0.371  -0.000   0.000   0.427  -0.121  -0.265  -0.048
  0.271   0.236  -0.721  -3.613   0.179  -0.356  -0.311   0.949   3.178  -0.236   0.000  -0.000   0.385  -0.306  -0.353  -0.043
  0.714   0.207   0.282   0.179  -3.697  -0.939  -0.272  -0.371  -0.236   3.288   0.000  -0.000  -0.107  -0.423   0.459   0.012
 -0.000  -0.004   0.000  -0.000  -0.000   0.000   0.004  -0.000   0.000   0.000   2.054  -0.278  -0.000  -0.000  -0.000   0.000
  0.000   0.000  -0.000   0.000   0.000  -0.000  -0.001   0.000  -0.000  -0.000  -0.278   0.070   0.000   0.000   0.000  -0.000
  0.276  -0.445  -0.385  -0.347   0.096  -0.306   0.493   0.427   0.385  -0.107  -0.000   0.000   0.353   0.000   0.000  -0.040
 -0.347  -0.445   0.109   0.276   0.381   0.385   0.493  -0.121  -0.306  -0.423  -0.000   0.000   0.000   0.353   0.000  -0.000
  0.318  -0.347   0.239   0.318  -0.414  -0.353   0.385  -0.265  -0.353   0.459  -0.000   0.000   0.000   0.000   0.353  -0.000
 -0.025   0.041   0.035   0.032  -0.009   0.034  -0.055  -0.048  -0.043   0.012   0.000  -0.000  -0.040  -0.000  -0.000   0.007
  0.032   0.041  -0.010  -0.025  -0.035  -0.043  -0.055   0.014   0.034   0.048   0.000  -0.000  -0.000  -0.040  -0.000   0.000
 -0.029   0.032  -0.022  -0.029   0.038   0.040  -0.043   0.030   0.040  -0.052   0.000  -0.000  -0.000  -0.000  -0.040   0.000
 total augmentation occupancy for first ion, spin component:           2
  3.823  -0.438  -0.380  -0.502  -1.322  -2.555   0.315   0.273   0.361   0.950   0.000  -0.000   0.132  -0.166   0.152   0.005
 -0.438   5.027   0.220  -0.438  -0.381   0.315  -3.420  -0.158   0.315   0.274  -0.001  -0.000  -0.213  -0.213  -0.166  -0.008
 -0.380   0.220   3.374   1.335  -0.522   0.273  -0.158  -2.233  -0.959   0.375  -0.000   0.000  -0.184   0.052   0.114  -0.007
 -0.502  -0.438   1.335   3.823  -0.332   0.361   0.315  -0.959  -2.555   0.238   0.000  -0.000  -0.166   0.132   0.152  -0.006
 -1.322  -0.381  -0.522  -0.332   3.977   0.950   0.274   0.375   0.238  -2.666   0.000  -0.000   0.046   0.183  -0.198   0.002
 -2.555   0.315   0.273   0.361   0.950   1.621  -0.224  -0.194  -0.257  -0.676  -0.000   0.000  -0.091   0.114  -0.105  -0.003
  0.315  -3.420  -0.158   0.315   0.274  -0.224   2.236   0.113  -0.224  -0.195   0.000   0.000   0.146   0.146   0.114   0.005
  0.273  -0.158  -2.233  -0.959   0.375  -0.194   0.113   1.392   0.683  -0.267   0.000  -0.000   0.127  -0.036  -0.079   0.004
  0.361   0.315  -0.959  -2.555   0.238  -0.257  -0.224   0.683   1.621  -0.170  -0.000   0.000   0.114  -0.091  -0.105   0.004
  0.950   0.274   0.375   0.238  -2.666  -0.676  -0.195  -0.267  -0.170   1.700  -0.000   0.000  -0.032  -0.125   0.136  -0.001
  0.000  -0.001  -0.000   0.000   0.000  -0.000   0.000   0.000  -0.000  -0.000  -0.231   0.076   0.000   0.000   0.000  -0.000
 -0.000  -0.000   0.000  -0.000  -0.000   0.000   0.000  -0.000   0.000   0.000   0.076  -0.012   0.000   0.000   0.000   0.000
  0.132  -0.213  -0.184  -0.166   0.046  -0.091   0.146   0.127   0.114  -0.032   0.000   0.000   0.019   0.000  -0.000   0.004
 -0.166  -0.213   0.052   0.132   0.183   0.114   0.146  -0.036  -0.091  -0.125   0.000   0.000   0.000   0.019  -0.000  -0.000
  0.152  -0.166   0.114   0.152  -0.198  -0.105   0.114  -0.079  -0.105   0.136   0.000   0.000  -0.000  -0.000   0.019   0.000
  0.005  -0.008  -0.007  -0.006   0.002  -0.003   0.005   0.004   0.004  -0.001  -0.000   0.000   0.004  -0.000   0.000  -0.001
 -0.006  -0.008   0.002   0.005   0.007   0.004   0.005  -0.001  -0.003  -0.004  -0.000   0.000  -0.000   0.004   0.000  -0.000
  0.006  -0.006   0.004   0.006  -0.007  -0.004   0.004  -0.003  -0.004   0.005  -0.000   0.000   0.000   0.000   0.004   0.000


------------------------ aborting loop because EDIFF is reached ----------------------------------------


    CHARGE:  cpu time    0.0802: real time    0.0802
    FORLOC:  cpu time    0.0017: real time    0.0017
    FORNL :  cpu time    0.0185: real time    0.0185
    STRESS:  cpu time    0.0530: real time    0.0530
    FORCOR:  cpu time    0.0638: real time    0.0638
    FORHAR:  cpu time    0.0085: real time    0.0085
    MIXING:  cpu time    0.0018: real time    0.0018
    OFIELD:  cpu time    0.0000: real time    0.0000

  FORCE on cell =-STRESS in cart. coord.  units (eV):
  Direction    XX          YY          ZZ          XY          YZ          ZX
  --------------------------------------------------------------------------------------
  Alpha Z     1.93305     1.93305     1.93305
  Ewald     395.27775   394.77020   394.77020     0.09228     0.48776     0.09228
  Hartree  1171.10788  1170.74103  1170.74103     0.02877     0.20698     0.02877
  E(xc)    -157.68647  -157.68675  -157.68675     0.00024     0.00075     0.00024
  Local   -2368.57668 -2367.71116 -2367.71116    -0.11519    -0.66248    -0.11519
  n-local   325.17529   325.16808   325.16808    -0.01278    -0.00173    -0.01278
  augment    97.71791    97.70448    97.70448     0.00153    -0.01121     0.00152
  Kinetic   534.94277   534.96113   534.96113    -0.00798    -0.02957    -0.00798
  Fock        0.00000     0.00000     0.00000     0.00000     0.00000     0.00000
  -------------------------------------------------------------------------------------
  Total      -0.10851    -0.11994    -0.11994    -0.01313    -0.00950    -0.01313
  in kB      -0.05151    -0.05694    -0.05694    -0.00624    -0.00451    -0.00624
  external pressure =       -0.06 kB  Pullay stress =        0.00 kB


 VOLUME and BASIS-vectors are now :
 -----------------------------------------------------------------------------
  energy-cutoff  :      450.00
  volume of cell :     3375.00
      direct lattice vectors                 reciprocal lattice vectors
    15.000000000  0.000000000  0.000000000     0.066666667  0.000000000  0.000000000
     0.000000000 15.000000000  0.000000000     0.000000000  0.066666667  0.000000000
     0.000000000  0.000000000 15.000000000     0.000000000  0.000000000  0.066666667

  length of vectors
    15.000000000 15.000000000 15.000000000     0.066666667  0.066666667  0.066666667


 FORCES acting on ions
    electron-ion (+dipol)            ewald-force                    non-local-force                 convergence-correction
 -----------------------------------------------------------------------------------------------
   -.352E+00 -.957E-01 -.957E-01   0.372E+00 0.935E-01 0.935E-01   0.255E-01 0.882E-02 0.882E-02   -.459E-01 -.264E-02 -.264E-02
   0.171E+03 0.281E+03 -.125E+03   -.172E+03 -.283E+03 0.126E+03   0.138E+01 0.228E+01 -.101E+01   -.351E-02 0.784E-02 -.443E-02
   0.171E+03 -.125E+03 0.281E+03   -.172E+03 0.126E+03 -.283E+03   0.138E+01 -.101E+01 0.228E+01   -.351E-02 -.443E-02 0.784E-02
   -.326E+03 0.927E+02 0.927E+02   0.329E+03 -.935E+02 -.935E+02   -.264E+01 0.748E+00 0.748E+00   -.314E-02 -.359E-02 -.359E-02
   -.147E+02 -.249E+03 -.249E+03   0.148E+02 0.251E+03 0.251E+03   -.117E+00 -.200E+01 -.200E+01   -.486E-02 0.109E-02 0.109E-02
 -----------------------------------------------------------------------------------------------
   0.400E-01 -.787E-02 -.788E-02   0.426E-13 0.284E-13 0.284E-13   0.216E-01 0.243E-01 0.243E-01   -.610E-01 -.173E-02 -.173E-02
 
 
 POSITION                                       TOTAL-FORCE (eV/Angst)
 -----------------------------------------------------------------------------------
      7.95045      8.40054      8.40054        -0.001429      0.001100      0.001100
      6.91653      6.69696      9.15670         0.000728      0.000954     -0.000455
      6.91653      9.15670      6.69696         0.000728     -0.000455      0.000954
      9.92861      7.83989      7.83989        -0.001449     -0.001052     -0.001052
      8.03787      9.90592      9.90592         0.001423     -0.000547     -0.000547
 -----------------------------------------------------------------------------------
    total drift:                                0.000629      0.014699      0.014689


--------------------------------------------------------------------------------------------------------



  FREE ENERGIE OF THE ION-ELECTRON SYSTEM (eV)
  ---------------------------------------------------
  free  energy   TOTEN  =       -13.56023447 eV

  energy  without entropy=      -13.51428122  energy(sigma->0) =      -13.54874616
 
 d Force = 0.9960647E-05[ 0.116E-05, 0.188E-04]  d Energy = 0.4592163E-05 0.537E-05
 d Force =-0.9247878E-01[-0.923E-01,-0.927E-01]  d Ewald  =-0.9247883E-01 0.520E-07


--------------------------------------------------------------------------------------------------------


    POTLOK:  cpu time    0.0697: real time    0.0697


--------------------------------------------------------------------------------------------------------




--------------------------------------------------------------------------------------------------------


  
 reached required accuracy - stopping structural energy minimisation
     LOOP+:  cpu time    1.1763: real time    1.2081
    4ORBIT:  cpu time    0.0003: real time    0.0003

 total amount of memory used by VASP on root node    39528. kBytes
========================================================================

   base      :      30000. kBytes
   nonlr-proj:        148. kBytes
   fftplans  :       2467. kBytes
   grid      :       6195. kBytes
   one-center:         31. kBytes
   wavefun   :        687. kBytes
 
  
  
 General timing and accounting informations for this job:
 ========================================================
  
                  Total CPU time used (sec):       83.931
                            User time (sec):       82.331
                          System time (sec):        1.600
                         Elapsed time (sec):       86.162
  
                   Maximum memory used (kb):      131600.
                   Average memory used (kb):           0.
  
                          Minor page faults:        41220
                          Major page faults:            0
                 Voluntary context switches:         6488
